
Running Job 1 of 1 QCHEM.in
qchem QCHEM.in_14499.0 /local_scratch/16100703/QCLOCALSCR/save/ 0
/gpfs/fs2/scratch/phuo_lab/Program/Qchem/exe/qcprog.exe_s QCHEM.in_14499.0 /local_scratch/16100703/QCLOCALSCR/save/
                  Welcome to Q-Chem
     A Quantum Leap Into The Future Of Chemistry


 Q-Chem 6.0, Q-Chem, Inc., Pleasanton, CA (2022)

 License issued to: SRG Frank Huo, University of Rochester

 E. Epifanovsky,  A. T. B. Gilbert,  Xintian Feng,  Joonho Lee,  Yuezhi Mao,  
 N. Mardirossian,  P. Pokhilko,  A. White,  M. Wormit,  M. P. Coons,  
 A. L. Dempwolff,  Zhengting Gan,  D. Hait,  P. R. Horn,  L. D. Jacobson,  
 I. Kaliman,  J. Kussmann,  A. W. Lange,  Ka Un Lao,  D. S. Levine,  Jie Liu,  
 S. C. McKenzie,  A. F. Morrison,  K. Nanda,  F. Plasser,  D. R. Rehn,  
 M. L. Vidal,  Zhi-Qiang You,  Ying Zhu,  B. Alam,  B. Albrecht,  
 A. Aldossary,  E. Alguire,  J. H. Andersen,  V. Athavale,  D. Barton,  
 K. Begam,  A. Behn,  N. Bellonzi,  Y. A. Bernard,  E. J. Berquist,  
 H. Burton,  A. Carreras,  K. Carter-Fenk,  Romit Chakraborty,  
 Chandrima Chakravarty,  Junhan Chen,  A. D. Chien,  K. D. Closser,  
 V. Cofer-Shabica,  L. Cunha,  S. Dasgupta,  Jia Deng,  M. de Wergifosse,  
 M. Diedenhofen,  Hainam Do,  S. Ehlert,  Po-Tung Fang,  S. Fatehi,  
 Qingguo Feng,  T. Friedhoff,  B. Ganoe,  J. Gayvert,  Qinghui Ge,  
 G. Gidofalvi,  M. Goldey,  J. Gomes,  C. Gonzalez-Espinoza,  S. Gulania,  
 A. Gunina,  J. A. Gyamfi,  M. W. D. Hanson-Heine,  P. H. P. Harbach,  
 A. W. Hauser,  M. F. Herbst,  M. Hernandez Vera,  M. Hodecker,  
 Z. C. Holden,  S. Houck,  Xunkun Huang,  Kerwin Hui,  B. C. Huynh,  
 K. Ikeda,  M. Ivanov,  Hyunjun Ji,  Zuxin Jin,  Hanjie Jiang,  B. Kaduk,  
 S. Kaehler,  R. Kang,  K. Khistyaev,  Jaehoon Kim,  Yongbin Kim,  
 P. Klunzinger,  Z. Koczor-Benda,  Joong Hoon Koh,  D. Kosenkov,  
 Saikiran Kotaru,  L. Koulias,  T. Kowalczyk,  C. M. Krauter,  K. Kue,  
 A. Kunitsa,  T. Kus,  A. Landau,  K. V. Lawler,  D. Lefrancois,  S. Lehtola,  
 Rain Li,  Shaozhi Li,  Yi-Pei Li,  Jiashu Liang,  M. Liebenthal,  
 Hung-Hsuan Lin,  You-Sheng Lin,  Fenglai Liu,  Kuan-Yu Liu,  
 M. Loipersberger,  A. Luenser,  C. Malbon,  A. Manjanath,  P. Manohar,  
 E. Mansoor,  S. F. Manzer,  Shan-Ping Mao,  A. V. Marenich,  T. Markovich,  
 S. Mason,  F. Matz,  S. A. Maurer,  P. F. McLaughlin,  M. F. S. J. Menger,  
 J.-M. Mewes,  S. A. Mewes,  P. Morgante,  Mohammad Mostafanejad,  
 J. W. Mullinax,  K. J. Oosterbaan,  G. Paran,  V. Parravicini,  
 Alexander C. Paul,  Suranjan K. Paul,  F. Pavosevic,  Zheng Pei,  S. Prager,  
 E. I. Proynov,  E. Ramos,  B. Rana,  A. E. Rask,  A. Rettig,  R. M. Richard,  
 F. Rob,  E. Rossomme,  T. Scheele,  M. Scheurer,  M. Schneider,  
 P. E. Schneider,  N. Sergueev,  S. M. Sharada,  Hengyuan Shen,  
 W. Skomorowski,  D. W. Small,  C. J. Stein,  Yingli Su,  Yu-Chuan Su,  
 E. J. Sundstrom,  Zhen Tao,  J. Thirman,  Hung-Yi Tsai,  T. Tsuchimochi,  
 N. M. Tubman,  C. Utku,  S. P. Veccham,  O. Vydrov,  J. Wenzel,  
 Jonathan Wong,  J. Witte,  A. Yamada,  Chou-Hsun Yang,  Kun Yao,  
 S. Yeganeh,  S. R. Yost,  A. Zech,  F. Zeller,  Igor Ying Zhang,  
 Xing Zhang,  Yu Zhang,  D. Zuev,  A. Aspuru-Guzik,  A. T. Bell,  
 N. A. Besley,  K. B. Bravaya,  B. R. Brooks,  D. Casanova,  Jeng-Da Chai,  
 Hsing-Ta Chen,  S. Coriani,  C. J. Cramer,  A. E. DePrince, III,  
 R. A. DiStasio Jr.,  A. Dreuw,  B. D. Dunietz,  T. R. Furlani,  
 W. A. Goddard III,  S. Grimme,  S. Hammes-Schiffer,  T. Head-Gordon,  
 W. J. Hehre,  Chao-Ping Hsu,  T.-C. Jagau,  Yousung Jung,  A. Klamt,  
 Jing Kong,  D. S. Lambrecht,  Xiangyuan Li,  WanZhen Liang,  N. J. Mayhall,  
 C. W. McCurdy,  J. B. Neaton,  T. Neudecker,  C. Ochsenfeld,  
 J. A. Parkhill,  R. Peverati,  V. A. Rassolov,  Haisheng Ren,  Yihan Shao,  
 L. V. Slipchenko,  R. P. Steele,  J. E. Subotnik,  A. J. W. Thom,  
 A. Tkatchenko,  D. G. Truhlar,  T. Van Voorhis,  Fan Wang,  
 T. A. Wesolowski,  K. B. Whaley,  H. L. Woodcock III,  P. M. Zimmerman,  
 S. Faraji,  P. M. W. Gill,  M. Head-Gordon,  J. M. Herbert,  A. I. Krylov

 Contributors to earlier versions of Q-Chem not listed above: 
 R. D. Adamson,  B. Austin,  R. Baer,  J. Baker,  G. J. O. Beran,  
 K. Brandhorst,  S. T. Brown,  E. F. C. Byrd,  Arup K. Chakraborty,  
 G. K. L. Chan,  Chun-Min Chang,  Yunqing Chen,  C.-L. Cheng,  
 Siu Hung Chien,  D. M. Chipman,  D. L. Crittenden,  H. Dachsel,  
 R. J. Doerksen,  A. D. Dutoi,  R. G. Edgar,  J. Fosso-Tande,  
 L. Fusti-Molnar,  D. Ghosh,  A. Ghysels,  A. Golubeva-Zadorozhnaya,  
 J. Gonthier,  M. S. Gordon,  S. R. Gwaltney,  G. Hawkins,  J. E. Herr,  
 A. Heyden,  S. Hirata,  E. G. Hohenstein,  G. Kedziora,  F. J. Keil,  
 C. Kelley,  Jihan Kim,  R. A. King,  R. Z. Khaliullin,  P. P. Korambath,  
 W. Kurlancheek,  A. Laurent,  A. M. Lee,  M. S. Lee,  S. V. Levchenko,  
 Ching Yeh Lin,  D. Liotard,  E. Livshits,  R. C. Lochan,  I. Lotan,  
 L. A. Martinez-Martinez,  P. E. Maslen,  N. Nair,  D. P. O'Neill,  
 D. Neuhauser,  E. Neuscamman,  C. M. Oana,  R. Olivares-Amaya,  R. Olson,  
 T. M. Perrine,  B. Peters,  P. A. Pieniazek,  A. Prociuk,  Y. M. Rhee,  
 J. Ritchie,  M. A. Rohrdanz,  E. Rosta,  N. J. Russ,  H. F. Schaefer III,  
 M. W. Schmidt,  N. E. Schultz,  S. Sharma,  N. Shenvi,  C. D. Sherrill,  
 A. C. Simmonett,  A. Sodt,  T. Stein,  D. Stuck,  K. S. Thanthiriwatte,  
 V. Vanovschi,  L. Vogt,  Tao Wang,  A. Warshel,  M. A. Watson,  
 C. F. Williams,  Q. Wu,  X. Xu,  Jun Yang,  W. Zhang,  Yan Zhao

   Please cite Q-Chem as follows:
  "Software for the frontiers of quantum chemistry:
   An overview of developments in the Q-Chem 5 package"
   J. Chem. Phys. 155, 084801 (2021)
   https://doi.org/10.1063/5.0055522 (open access)

 Q-Chem 6.0.2 for Intel X86 EM64T Linux

 Parts of Q-Chem use Armadillo 9.900.5 (Nocturnal Misbehaviour).
 http://arma.sourceforge.net/

 Q-Chem begins on Mon Apr 17 09:29:50 2023  

 Host: 
0

     Scratch files written to /local_scratch/16100703/QCLOCALSCR/save//
 Dec722 |scratch|qcdevops|jenkins|workspace|build_RNUM 9024   
 Processing $rem in /gpfs/fs2/scratch/phuo_lab/Program/Qchem/config/preferences:
 Processing $rem in /home/bweight/.qchemrc:

 Checking the input file for inconsistencies... 	...done.

--------------------------------------------------------------
User input:
--------------------------------------------------------------
$molecule
0 1
C         -1.82075        1.21221        0.00007
C         -0.42782        1.22011        0.00011
C          0.24287        0.00002       -0.00001
C         -0.42786       -1.22012        0.00003
C         -2.51579        0.00002        0.00000
H         -2.36155        2.15093       -0.00002
H          0.13769        2.14227        0.00006
H          0.13768       -2.14225       -0.00012
H         -3.59985       -0.00001       -0.00023
N          1.70520        0.00000       -0.00004
O          2.29572       -1.10489        0.00011
O          2.29576        1.10486       -0.00013
C         -1.82075       -1.21220       -0.00006
H         -2.36162       -2.15087       -0.00013
$end

$rem
!SCF_GUESS         read
!SKIP_CIS_RPA      TRUE
METHOD             wB97XD
RPA                TRUE
BASIS              6-31G
CIS_N_ROOTS        100
CIS_SINGLETS       TRUE
CIS_TRIPLETS       FALSE
MAKE_CUBE_FILES    TRUE
PLOTS              TRUE
STS_MOM            TRUE
SYM_IGNORE         TRUE
SYMMETRY           FALSE
$end

$plots
grid_points                    100 100 100
total_density                  0-100
transition_density             1-100
$end
































--------------------------------------------------------------
 ----------------------------------------------------------------
             Standard Nuclear Orientation (Angstroms)
    I     Atom           X                Y                Z
 ----------------------------------------------------------------
    1      C      -1.8207500000     1.2122100000     0.0000700000
    2      C      -0.4278200000     1.2201100000     0.0001100000
    3      C       0.2428700000     0.0000200000    -0.0000100000
    4      C      -0.4278600000    -1.2201200000     0.0000300000
    5      C      -2.5157900000     0.0000200000     0.0000000000
    6      H      -2.3615500000     2.1509300000    -0.0000200000
    7      H       0.1376900000     2.1422700000     0.0000600000
    8      H       0.1376800000    -2.1422500000    -0.0001200000
    9      H      -3.5998500000    -0.0000100000    -0.0002300000
   10      N       1.7052000000     0.0000000000    -0.0000400000
   11      O       2.2957200000    -1.1048900000     0.0001100000
   12      O       2.2957600000     1.1048600000    -0.0001300000
   13      C      -1.8207500000    -1.2122000000    -0.0000600000
   14      H      -2.3616200000    -2.1508700000    -0.0001300000
 ----------------------------------------------------------------
 Nuclear Repulsion Energy =         410.79474676 hartrees
 There are       32 alpha and       32 beta electrons
 Requested basis set is 6-31G
 There are 37 shells and 91 basis functions

 Total QAlloc Memory Limit   2000 MB
 Mega-Array Size       188 MB
 MEM_STATIC part       192 MB


                       Distance Matrix (Angstroms)
             C (  1)   C (  2)   C (  3)   C (  4)   C (  5)   H (  6)
   C (  2)  1.392952
   C (  3)  2.393310  1.392280
   C (  4)  2.802922  2.440230  1.392343
   C (  5)  1.397314  2.418313  2.758660  2.418304
   H (  6)  1.083356  2.146098  3.377783  3.886275  2.156433
   H (  7)  2.168063  1.081749  2.144831  3.409621  3.410307  2.499255
   H (  8)  3.884308  3.409583  2.144851  1.081739  3.410311  4.967650
   H (  9)  2.152829  3.398598  3.842720  3.398557  1.084060  2.481921
   N ( 10)  3.728509  2.457324  1.462330  2.457364  4.220990  4.600539
   O ( 11)  4.723799  3.580963  2.331313  2.726017  4.936745  5.682475
   O ( 12)  4.117909  2.726017  2.331315  3.581011  4.936769  4.773343
   C ( 13)  2.424410  2.802925  2.393325  1.392913  1.397340  3.406334
   H ( 14)  3.406295  3.886269  3.377824  2.146095  2.156408  4.301800
             H (  7)   H (  8)   H (  9)   N ( 10)   O ( 11)   O ( 12)
   H (  8)  4.284520
   H (  9)  4.307966  4.307937
   N ( 10)  2.654507  2.654497  5.305050
   O ( 11)  3.898864  2.394421  5.998209  1.252795
   O ( 12)  2.394470  3.898850  5.998246  1.252788  2.209750
   C ( 13)  3.884322  2.168050  2.152812  3.728505  4.117868  4.723814
   H ( 14)  4.967656  2.499315  2.481816  4.600572  4.773352  5.682514
             C ( 13)
   H ( 14)  1.083347
 
 A cutoff of  1.0D-12 yielded    629 shell pairs
 There are      4085 function pairs
 Smallest overlap matrix eigenvalue = 6.33E-04

 Scale SEOQF with 1.000000e-01/1.000000e-01/1.000000e+00

 Standard Electronic Orientation quadrupole field applied
 Nucleus-field energy     =     0.0000000127 hartrees
 Guess from superposition of atomic densities
 Warning:  Energy on first SCF cycle will be non-variational
 SAD guess density has 64.000000 electrons

 -----------------------------------------------------------------------
  General SCF calculation program by
  Eric Jon Sundstrom, Paul Horn, Yuezhi Mao, Dmitri Zuev, Alec White,
  David Stuck, Shaama M.S., Shane Yost, Joonho Lee, David Small,
  Daniel Levine, Susi Lehtola, Hugh Burton, Evgeny Epifanovsky,
  Bang C. Huynh
 -----------------------------------------------------------------------
 Exchange:     0.2220 Hartree-Fock + 1.0000 wB97X-D + LR-HF
 Correlation:  1.0000 wB97X-D
 Using SG-2 standard quadrature grid
 Dispersion:   Grimme D
 using 12 threads for integral computing
 -------------------------------------------------------
 OpenMP Integral computing Module                
 Release: version 1.0, May 2013, Q-Chem Inc. Pittsburgh 
 -------------------------------------------------------
 A restricted SCF calculation will be
 performed using DIIS
 SCF converges when DIIS error is below 1.0e-08
 ---------------------------------------
  Cycle       Energy         DIIS error
 ---------------------------------------
    1    -439.0141115250      1.05e-01  
    2    -436.2077756456      1.66e-02  
    3    -435.9972664492      2.45e-02  
    4    -436.4587999852      9.56e-04  
    5    -436.4596524869      6.28e-04  
    6    -436.4600687516      1.21e-04  
    7    -436.4600873399      4.40e-05  
    8    -436.4600911106      1.61e-05  
    9    -436.4600915594      4.15e-06  
   10    -436.4600916239      1.89e-06  
   11    -436.4600916273      1.29e-06  
   12    -436.4600916294      2.33e-07  
   13    -436.4600916295      7.92e-08  
   14    -436.4600916295      9.95e-09  Convergence criterion met
 ---------------------------------------
 SCF time:   CPU 31.80s  wall 3.00s 
 SCF   energy in the final basis set =     -436.4600916295
 Total energy in the final basis set =     -436.4600916295
 
 MAX_CIS_SUBSPACE fits in available memory
 Direct TDDFT/TDA calculation will be performed
 Exchange:     0.2220 Hartree-Fock + 1.0000 wB97X-D + LR-HF
 Correlation:  1.0000 wB97X-D
 Using SG-2 standard quadrature grid
 Dispersion:   Grimme D
 Singlet excitation energies requested
 CIS energy converged when residual is below 10e- 6
 ---------------------------------------------------
 Iter    Rts Conv    Rts Left    Ttl Dev     Max Dev
 ---------------------------------------------------
   1         0         100      0.095427    0.005557
   2         0         100      0.022341    0.000778
   3         0         100      0.006785    0.000370
   4        25          75      0.002441    0.000555
   5        60          40      0.000525    0.000097
   6        87          13      0.000102    0.000017
   7        95           5      0.000031    0.000003
   8       100           0      0.000020    0.000001    Roots Converged
 ---------------------------------------------------
 
 ---------------------------------------------------
         TDDFT/TDA Excitation Energies              
 ---------------------------------------------------

 Excited state   1: excitation energy (eV) =    3.5698
 Total energy for state  1:                  -436.32890484 au
    Multiplicity: Singlet
    Trans. Mom.: -0.0001 X  -0.0000 Y   0.0000 Z
    Strength   :     0.0000000008
    D(   30) --> V(    1) amplitude =  0.9675
    D(   30) --> V(    3) amplitude = -0.2468

 Excited state   2: excitation energy (eV) =    4.0643
 Total energy for state  2:                  -436.31073067 au
    Multiplicity: Singlet
    Trans. Mom.: -0.0001 X  -0.0000 Y   0.0239 Z
    Strength   :     0.0000570034
    D(   28) --> V(    1) amplitude =  0.9678
    D(   28) --> V(    3) amplitude = -0.2372

 Excited state   3: excitation energy (eV) =    4.8875
 Total energy for state  3:                  -436.28047977 au
    Multiplicity: Singlet
    Trans. Mom.: -0.0002 X  -0.4231 Y  -0.0000 Z
    Strength   :     0.0214316297
    D(   31) --> V(    2) amplitude =  0.3476
    D(   32) --> V(    1) amplitude =  0.9276

 Excited state   4: excitation energy (eV) =    5.2888
 Total energy for state  4:                  -436.26573163 au
    Multiplicity: Singlet
    Trans. Mom.: -1.5429 X   0.0001 Y   0.0001 Z
    Strength   :     0.3084436362
    D(   31) --> V(    1) amplitude =  0.9649

 Excited state   5: excitation energy (eV) =    6.5164
 Total energy for state  5:                  -436.22061947 au
    Multiplicity: Singlet
    Trans. Mom.: -0.0000 X   0.2303 Y   0.0001 Z
    Strength   :     0.0084702954
    D(   31) --> V(    2) amplitude =  0.6903
    D(   32) --> V(    1) amplitude = -0.3281
    D(   32) --> V(    3) amplitude =  0.5946

 Excited state   6: excitation energy (eV) =    6.9125
 Total energy for state  6:                  -436.20606101 au
    Multiplicity: Singlet
    Trans. Mom.: -0.0000 X  -0.7620 Y   0.0001 Z
    Strength   :     0.0983381531
    D(   29) --> V(    1) amplitude =  0.8893
    D(   32) --> V(    3) amplitude = -0.2893

 Excited state   7: excitation energy (eV) =    7.0676
 Total energy for state  7:                  -436.20036122 au
    Multiplicity: Singlet
    Trans. Mom.: -0.0001 X   0.0001 Y   0.0000 Z
    Strength   :     0.0000000047
    D(   27) --> V(    1) amplitude =  0.9590

 Excited state   8: excitation energy (eV) =    7.2536
 Total energy for state  8:                  -436.19352779 au
    Multiplicity: Singlet
    Trans. Mom.: -1.0121 X   0.0002 Y  -0.0001 Z
    Strength   :     0.1820256113
    D(   25) --> V(    1) amplitude =  0.2171
    D(   31) --> V(    3) amplitude = -0.5238
    D(   32) --> V(    2) amplitude =  0.8013

 Excited state   9: excitation energy (eV) =    7.6646
 Total energy for state  9:                  -436.17842140 au
    Multiplicity: Singlet
    Trans. Mom.: -0.0001 X   0.0000 Y   0.0561 Z
    Strength   :     0.0005909617
    D(   26) --> V(    1) amplitude =  0.8435
    D(   26) --> V(    3) amplitude =  0.2224
    D(   30) --> V(    2) amplitude = -0.4103

 Excited state  10: excitation energy (eV) =    7.7747
 Total energy for state 10:                  -436.17437513 au
    Multiplicity: Singlet
    Trans. Mom.:  0.0001 X   0.0001 Y  -0.0194 Z
    Strength   :     0.0000714406
    D(   26) --> V(    1) amplitude =  0.3554
    D(   30) --> V(    2) amplitude =  0.8968

 Excited state  11: excitation energy (eV) =    7.9365
 Total energy for state 11:                  -436.16843077 au
    Multiplicity: Singlet
    Trans. Mom.:  0.0002 X   0.0001 Y   0.0000 Z
    Strength   :     0.0000000133
    D(   28) --> V(    2) amplitude =  0.6866
    D(   30) --> V(    3) amplitude = -0.6740

 Excited state  12: excitation energy (eV) =    8.0235
 Total energy for state 12:                  -436.16523257 au
    Multiplicity: Singlet
    Trans. Mom.: -0.0003 X   0.0001 Y  -0.0000 Z
    Strength   :     0.0000000239
    D(   28) --> V(    2) amplitude =  0.6911
    D(   30) --> V(    3) amplitude =  0.6629

 Excited state  13: excitation energy (eV) =    8.0927
 Total energy for state 13:                  -436.16268981 au
    Multiplicity: Singlet
    Trans. Mom.:  0.2368 X  -0.0001 Y  -0.0000 Z
    Strength   :     0.0111216845
    D(   29) --> V(    2) amplitude =  0.9811

 Excited state  14: excitation energy (eV) =    8.2673
 Total energy for state 14:                  -436.15627307 au
    Multiplicity: Singlet
    Trans. Mom.: -0.0009 X  -0.0004 Y  -0.0401 Z
    Strength   :     0.0003255112
    D(   26) --> V(    1) amplitude =  0.2624
    D(   28) --> V(    1) amplitude =  0.2157
    D(   28) --> V(    3) amplitude =  0.9041

 Excited state  15: excitation energy (eV) =    8.3777
 Total energy for state 15:                  -436.15221759 au
    Multiplicity: Singlet
    Trans. Mom.: -0.8388 X  -0.0008 Y   0.0002 Z
    Strength   :     0.1444200074
    D(   25) --> V(    1) amplitude =  0.7938
    D(   31) --> V(    3) amplitude =  0.5582

 Excited state  16: excitation energy (eV) =    8.4412
 Total energy for state 16:                  -436.14988454 au
    Multiplicity: Singlet
    Trans. Mom.:  0.0002 X  -0.0006 Y  -0.1679 Z
    Strength   :     0.0058297770
    D(   27) --> V(    2) amplitude =  0.9880

 Excited state  17: excitation energy (eV) =    8.5404
 Total energy for state 17:                  -436.14623898 au
    Multiplicity: Singlet
    Trans. Mom.:  0.0011 X  -1.8551 Y  -0.0000 Z
    Strength   :     0.7200694157
    D(   29) --> V(    3) amplitude =  0.3437
    D(   31) --> V(    2) amplitude = -0.5749
    D(   32) --> V(    3) amplitude =  0.6760

 Excited state  18: excitation energy (eV) =    8.5976
 Total energy for state 18:                  -436.14413743 au
    Multiplicity: Singlet
    Trans. Mom.: -1.6342 X  -0.0010 Y  -0.0001 Z
    Strength   :     0.5625610947
    D(   25) --> V(    1) amplitude = -0.5096
    D(   31) --> V(    3) amplitude =  0.5889
    D(   32) --> V(    2) amplitude =  0.4960

 Excited state  19: excitation energy (eV) =    8.7602
 Total energy for state 19:                  -436.13815952 au
    Multiplicity: Singlet
    Trans. Mom.: -0.0000 X   1.0934 Y  -0.0001 Z
    Strength   :     0.2565724311
    D(   29) --> V(    3) amplitude =  0.8812
    D(   32) --> V(    3) amplitude = -0.2545

 Excited state  20: excitation energy (eV) =    8.9055
 Total energy for state 20:                  -436.13281906 au
    Multiplicity: Singlet
    Trans. Mom.: -0.0001 X  -0.0006 Y   0.0000 Z
    Strength   :     0.0000000892
    D(   24) --> V(    1) amplitude =  0.2730
    D(   26) --> V(    2) amplitude =  0.9008
    D(   27) --> V(    3) amplitude =  0.2284

 Excited state  21: excitation energy (eV) =    9.0930
 Total energy for state 21:                  -436.12592898 au
    Multiplicity: Singlet
    Trans. Mom.: -0.0001 X  -0.0003 Y  -0.0000 Z
    Strength   :     0.0000000179
    D(   22) --> V(    1) amplitude = -0.5749
    D(   24) --> V(    1) amplitude =  0.3526
    D(   26) --> V(    2) amplitude = -0.2846
    D(   27) --> V(    3) amplitude =  0.6284

 Excited state  22: excitation energy (eV) =    9.4168
 Total energy for state 22:                  -436.11402963 au
    Multiplicity: Singlet
    Trans. Mom.:  0.0001 X  -0.0000 Y  -0.0000 Z
    Strength   :     0.0000000035
    D(   22) --> V(    1) amplitude = -0.2649
    D(   32) --> V(    4) amplitude =  0.9067

 Excited state  23: excitation energy (eV) =    9.4536
 Total energy for state 23:                  -436.11267899 au
    Multiplicity: Singlet
    Trans. Mom.:  0.0000 X   0.0001 Y  -0.0000 Z
    Strength   :     0.0000000042
    D(   21) --> V(    1) amplitude =  0.2705
    D(   22) --> V(    1) amplitude =  0.5179
    D(   24) --> V(    1) amplitude =  0.6450
    D(   32) --> V(    4) amplitude =  0.3582

 Excited state  24: excitation energy (eV) =    9.5469
 Total energy for state 24:                  -436.10924967 au
    Multiplicity: Singlet
    Trans. Mom.:  0.0000 X  -0.0001 Y  -0.1095 Z
    Strength   :     0.0028045165
    D(   31) --> V(    4) amplitude =  0.9532

 Excited state  25: excitation energy (eV) =    9.8485
 Total energy for state 25:                  -436.09816680 au
    Multiplicity: Singlet
    Trans. Mom.:  0.0002 X  -0.0001 Y   0.1519 Z
    Strength   :     0.0055651685
    D(   20) --> V(    1) amplitude = -0.3735
    D(   23) --> V(    1) amplitude = -0.4219
    D(   26) --> V(    3) amplitude =  0.7394

 Excited state  26: excitation energy (eV) =    9.8649
 Total energy for state 26:                  -436.09756272 au
    Multiplicity: Singlet
    Trans. Mom.:  0.0001 X  -0.0001 Y  -0.0002 Z
    Strength   :     0.0000000149
    D(   21) --> V(    1) amplitude =  0.3068
    D(   22) --> V(    1) amplitude =  0.2946
    D(   24) --> V(    1) amplitude = -0.5147
    D(   27) --> V(    1) amplitude = -0.2374
    D(   27) --> V(    3) amplitude =  0.6609

 Excited state  27: excitation energy (eV) =   10.0452
 Total energy for state 27:                  -436.09093630 au
    Multiplicity: Singlet
    Trans. Mom.: -0.0001 X  -0.0701 Y  -0.0000 Z
    Strength   :     0.0012103540
    D(   25) --> V(    2) amplitude =  0.9427
    D(   32) --> V(    7) amplitude =  0.2459

 Excited state  28: excitation energy (eV) =   10.1063
 Total energy for state 28:                  -436.08869371 au
    Multiplicity: Singlet
    Trans. Mom.: -0.0000 X  -0.0000 Y  -0.0258 Z
    Strength   :     0.0001641975
    D(   23) --> V(    1) amplitude =  0.8309
    D(   24) --> V(    2) amplitude = -0.2196
    D(   26) --> V(    3) amplitude =  0.3968

 Excited state  29: excitation energy (eV) =   10.2340
 Total energy for state 29:                  -436.08399841 au
    Multiplicity: Singlet
    Trans. Mom.:  0.0000 X   0.0929 Y  -0.0000 Z
    Strength   :     0.0021630129
    D(   30) --> V(    4) amplitude =  0.7939
    D(   30) --> V(    5) amplitude =  0.5042

 Excited state  30: excitation energy (eV) =   10.3677
 Total energy for state 30:                  -436.07908624 au
    Multiplicity: Singlet
    Trans. Mom.: -0.0000 X  -0.0001 Y  -0.0000 Z
    Strength   :     0.0000000020
    D(   21) --> V(    1) amplitude =  0.6986
    D(   22) --> V(    1) amplitude = -0.3859
    D(   22) --> V(    3) amplitude = -0.2967
    D(   29) --> V(    4) amplitude = -0.3495
    D(   29) --> V(    5) amplitude = -0.2445

 Excited state  31: excitation energy (eV) =   10.4945
 Total energy for state 31:                  -436.07442473 au
    Multiplicity: Singlet
    Trans. Mom.: -0.0000 X   0.0001 Y   0.0000 Z
    Strength   :     0.0000000015
    D(   21) --> V(    1) amplitude =  0.4027
    D(   29) --> V(    4) amplitude =  0.6901
    D(   29) --> V(    5) amplitude =  0.4468

 Excited state  32: excitation energy (eV) =   10.6055
 Total energy for state 32:                  -436.07034660 au
    Multiplicity: Singlet
    Trans. Mom.: -0.0001 X   0.0000 Y   0.0271 Z
    Strength   :     0.0001908807
    D(   24) --> V(    2) amplitude =  0.9371

 Excited state  33: excitation energy (eV) =   10.7220
 Total energy for state 33:                  -436.06606697 au
    Multiplicity: Singlet
    Trans. Mom.: -0.0000 X   0.0000 Y  -0.0796 Z
    Strength   :     0.0016625176
    D(   25) --> V(    4) amplitude =  0.3249
    D(   31) --> V(    5) amplitude =  0.7290
    D(   32) --> V(    6) amplitude = -0.5771

 Excited state  34: excitation energy (eV) =   10.8245
 Total energy for state 34:                  -436.06229894 au
    Multiplicity: Singlet
    Trans. Mom.: -0.3515 X   0.0001 Y   0.0000 Z
    Strength   :     0.0327695908
    D(   25) --> V(    3) amplitude =  0.8382
    D(   28) --> V(    4) amplitude = -0.3920
    D(   28) --> V(    5) amplitude = -0.2575

 Excited state  35: excitation energy (eV) =   10.9703
 Total energy for state 35:                  -436.05693969 au
    Multiplicity: Singlet
    Trans. Mom.:  0.0020 X  -0.0001 Y  -0.0001 Z
    Strength   :     0.0000010663
    D(   31) --> V(    6) amplitude = -0.2467
    D(   32) --> V(    5) amplitude =  0.9264

 Excited state  36: excitation energy (eV) =   10.9757
 Total energy for state 36:                  -436.05674382 au
    Multiplicity: Singlet
    Trans. Mom.:  0.5330 X  -0.0001 Y   0.0001 Z
    Strength   :     0.0763925307
    D(   25) --> V(    3) amplitude =  0.4491
    D(   28) --> V(    4) amplitude =  0.6806
    D(   28) --> V(    5) amplitude =  0.3879
    D(   31) --> V(    7) amplitude = -0.2607

 Excited state  37: excitation energy (eV) =   11.0277
 Total energy for state 37:                  -436.05483091 au
    Multiplicity: Singlet
    Trans. Mom.:  0.0001 X  -0.0000 Y  -0.0493 Z
    Strength   :     0.0006571297
    D(   31) --> V(    5) amplitude =  0.6061
    D(   32) --> V(    6) amplitude =  0.7429

 Excited state  38: excitation energy (eV) =   11.1015
 Total energy for state 38:                  -436.05212021 au
    Multiplicity: Singlet
    Trans. Mom.:  0.0002 X  -0.0000 Y  -0.1274 Z
    Strength   :     0.0044154384
    D(   18) --> V(    1) amplitude =  0.2729
    D(   20) --> V(    1) amplitude =  0.5996
    D(   21) --> V(    2) amplitude =  0.2320
    D(   22) --> V(    2) amplitude = -0.5871
    D(   26) --> V(    3) amplitude =  0.2388

 Excited state  39: excitation energy (eV) =   11.2227
 Total energy for state 39:                  -436.04766386 au
    Multiplicity: Singlet
    Trans. Mom.: -0.0000 X   0.0000 Y   0.0002 Z
    Strength   :     0.0000000115
    D(   23) --> V(    2) amplitude =  0.8658
    D(   24) --> V(    3) amplitude = -0.2451
    D(   27) --> V(    7) amplitude =  0.2595
    D(   31) --> V(    6) amplitude =  0.2152

 Excited state  40: excitation energy (eV) =   11.2452
 Total energy for state 40:                  -436.04683899 au
    Multiplicity: Singlet
    Trans. Mom.:  0.0000 X  -0.0001 Y  -0.1583 Z
    Strength   :     0.0069043972
    D(   20) --> V(    1) amplitude =  0.5109
    D(   21) --> V(    2) amplitude = -0.2678
    D(   22) --> V(    2) amplitude =  0.6616
    D(   26) --> V(    3) amplitude =  0.3007

 Excited state  41: excitation energy (eV) =   11.3612
 Total energy for state 41:                  -436.04257547 au
    Multiplicity: Singlet
    Trans. Mom.:  0.0000 X  -0.0001 Y   0.0001 Z
    Strength   :     0.0000000024
    D(   23) --> V(    2) amplitude = -0.2229
    D(   31) --> V(    6) amplitude =  0.9262
    D(   32) --> V(    5) amplitude =  0.2303

 Excited state  42: excitation energy (eV) =   11.5110
 Total energy for state 42:                  -436.03706957 au
    Multiplicity: Singlet
    Trans. Mom.:  0.0002 X  -0.0154 Y   0.0001 Z
    Strength   :     0.0000665192
    D(   25) --> V(    2) amplitude = -0.2158
    D(   32) --> V(    7) amplitude =  0.9369

 Excited state  43: excitation energy (eV) =   11.5319
 Total energy for state 43:                  -436.03630103 au
    Multiplicity: Singlet
    Trans. Mom.: -0.0085 X   0.0002 Y   0.0000 Z
    Strength   :     0.0000206342
    D(   19) --> V(    1) amplitude =  0.4250
    D(   31) --> V(    7) amplitude =  0.8491

 Excited state  44: excitation energy (eV) =   11.9125
 Total energy for state 44:                  -436.02231572 au
    Multiplicity: Singlet
    Trans. Mom.:  0.0000 X  -0.0000 Y   0.0002 Z
    Strength   :     0.0000000161
    D(   23) --> V(    2) amplitude =  0.3084
    D(   24) --> V(    3) amplitude =  0.8996

 Excited state  45: excitation energy (eV) =   11.9485
 Total energy for state 45:                  -436.02099145 au
    Multiplicity: Singlet
    Trans. Mom.:  0.0000 X  -0.0000 Y  -0.1889 Z
    Strength   :     0.0104457565
    D(   18) --> V(    1) amplitude =  0.6977
    D(   20) --> V(    1) amplitude = -0.2866
    D(   20) --> V(    3) amplitude = -0.3335
    D(   23) --> V(    3) amplitude = -0.5175

 Excited state  46: excitation energy (eV) =   12.1079
 Total energy for state 46:                  -436.01513497 au
    Multiplicity: Singlet
    Trans. Mom.:  0.0010 X  -0.0001 Y  -0.0000 Z
    Strength   :     0.0000002855
    D(   22) --> V(    3) amplitude =  0.2354
    D(   32) --> V(    8) amplitude =  0.6864
    D(   32) --> V(   10) amplitude =  0.5669

 Excited state  47: excitation energy (eV) =   12.1183
 Total energy for state 47:                  -436.01475077 au
    Multiplicity: Singlet
    Trans. Mom.: -0.4491 X   0.0000 Y  -0.0001 Z
    Strength   :     0.0598789561
    D(   19) --> V(    1) amplitude =  0.7526
    D(   26) --> V(    4) amplitude =  0.2598
    D(   28) --> V(    4) amplitude = -0.3503
    D(   31) --> V(    7) amplitude = -0.3202

 Excited state  48: excitation energy (eV) =   12.2339
 Total energy for state 48:                  -436.01050570 au
    Multiplicity: Singlet
    Trans. Mom.:  0.0000 X   0.2222 Y   0.0000 Z
    Strength   :     0.0147994572
    D(   27) --> V(    4) amplitude =  0.7073
    D(   28) --> V(    6) amplitude = -0.2590
    D(   30) --> V(    4) amplitude =  0.3110
    D(   30) --> V(    5) amplitude = -0.2918
    D(   30) --> V(   10) amplitude =  0.4079

 Excited state  49: excitation energy (eV) =   12.2683
 Total energy for state 49:                  -436.00923969 au
    Multiplicity: Singlet
    Trans. Mom.:  0.0000 X   0.0003 Y  -0.0000 Z
    Strength   :     0.0000000241
    D(   21) --> V(    1) amplitude =  0.2397
    D(   21) --> V(    3) amplitude = -0.2575
    D(   22) --> V(    3) amplitude =  0.7571
    D(   27) --> V(    7) amplitude =  0.2184
    D(   30) --> V(    7) amplitude =  0.2233
    D(   32) --> V(    8) amplitude = -0.3277

 Excited state  50: excitation energy (eV) =   12.3061
 Total energy for state 50:                  -436.00785057 au
    Multiplicity: Singlet
    Trans. Mom.: -0.0002 X  -0.0001 Y   0.0286 Z
    Strength   :     0.0002459230
    D(   31) --> V(    8) amplitude =  0.7801
    D(   31) --> V(   10) amplitude =  0.4752

 Excited state  51: excitation energy (eV) =   12.3962
 Total energy for state 51:                  -436.00453834 au
    Multiplicity: Singlet
    Trans. Mom.: -0.0672 X  -0.0000 Y  -0.0000 Z
    Strength   :     0.0013718332
    D(   26) --> V(    4) amplitude = -0.2279
    D(   28) --> V(   10) amplitude = -0.3986
    D(   30) --> V(    6) amplitude =  0.7208
    D(   30) --> V(    9) amplitude = -0.3246

 Excited state  52: excitation energy (eV) =   12.4085
 Total energy for state 52:                  -436.00408765 au
    Multiplicity: Singlet
    Trans. Mom.:  0.0000 X  -0.0000 Y   0.0460 Z
    Strength   :     0.0006425641
    D(   32) --> V(    9) amplitude =  0.9264

 Excited state  53: excitation energy (eV) =   12.4311
 Total energy for state 53:                  -436.00325592 au
    Multiplicity: Singlet
    Trans. Mom.: -0.0001 X   0.0000 Y  -0.0000 Z
    Strength   :     0.0000000021
    D(   32) --> V(    8) amplitude = -0.5809
    D(   32) --> V(   10) amplitude =  0.6864

 Excited state  54: excitation energy (eV) =   12.4444
 Total energy for state 54:                  -436.00276894 au
    Multiplicity: Singlet
    Trans. Mom.:  0.0001 X   0.0760 Y  -0.0000 Z
    Strength   :     0.0017606264
    D(   27) --> V(    4) amplitude =  0.6706
    D(   30) --> V(    4) amplitude = -0.3558
    D(   30) --> V(    5) amplitude =  0.3396
    D(   30) --> V(   10) amplitude = -0.3943

 Excited state  55: excitation energy (eV) =   12.5239
 Total energy for state 55:                  -435.99984629 au
    Multiplicity: Singlet
    Trans. Mom.: -0.0001 X  -0.0001 Y  -0.0000 Z
    Strength   :     0.0000000056
    D(   29) --> V(    4) amplitude = -0.4292
    D(   29) --> V(    5) amplitude =  0.3382
    D(   29) --> V(   10) amplitude = -0.4306
    D(   29) --> V(   11) amplitude = -0.3190
    D(   31) --> V(    9) amplitude =  0.4947
    D(   32) --> V(   10) amplitude = -0.2799

 Excited state  56: excitation energy (eV) =   12.5787
 Total energy for state 56:                  -435.99783425 au
    Multiplicity: Singlet
    Trans. Mom.:  0.0000 X  -0.0001 Y  -0.0000 Z
    Strength   :     0.0000000063
    D(   20) --> V(    2) amplitude = -0.3037
    D(   29) --> V(    4) amplitude =  0.3145
    D(   29) --> V(    5) amplitude = -0.2472
    D(   29) --> V(   11) amplitude =  0.2289
    D(   30) --> V(    7) amplitude =  0.4022
    D(   31) --> V(    9) amplitude =  0.5852

 Excited state  57: excitation energy (eV) =   12.6212
 Total energy for state 57:                  -435.99626987 au
    Multiplicity: Singlet
    Trans. Mom.: -0.0000 X   0.0000 Y  -0.0026 Z
    Strength   :     0.0000021544
    D(   23) --> V(    3) amplitude =  0.2253
    D(   29) --> V(    6) amplitude =  0.2184
    D(   31) --> V(    8) amplitude = -0.5531
    D(   31) --> V(   10) amplitude =  0.6538

 Excited state  58: excitation energy (eV) =   12.6569
 Total energy for state 58:                  -435.99496084 au
    Multiplicity: Singlet
    Trans. Mom.: -0.0001 X  -0.0001 Y   0.0000 Z
    Strength   :     0.0000000051
    D(   30) --> V(    7) amplitude =  0.7795
    D(   31) --> V(    9) amplitude = -0.4995

 Excited state  59: excitation energy (eV) =   12.7420
 Total energy for state 59:                  -435.99183202 au
    Multiplicity: Singlet
    Trans. Mom.:  0.4762 X   0.0002 Y  -0.0001 Z
    Strength   :     0.0707896687
    D(   19) --> V(    1) amplitude = -0.3064
    D(   26) --> V(    4) amplitude =  0.6724
    D(   28) --> V(    4) amplitude = -0.2417
    D(   28) --> V(    5) amplitude =  0.4082
    D(   28) --> V(   11) amplitude = -0.2442

 Excited state  60: excitation energy (eV) =   12.7764
 Total energy for state 60:                  -435.99056767 au
    Multiplicity: Singlet
    Trans. Mom.: -0.0007 X  -0.0001 Y  -0.0947 Z
    Strength   :     0.0028081582
    D(   18) --> V(    1) amplitude =  0.2555
    D(   23) --> V(    3) amplitude =  0.5237
    D(   28) --> V(    7) amplitude =  0.5081
    D(   31) --> V(   10) amplitude = -0.4092
    D(   32) --> V(    9) amplitude =  0.2433

 Excited state  61: excitation energy (eV) =   12.9212
 Total energy for state 61:                  -435.98524778 au
    Multiplicity: Singlet
    Trans. Mom.:  0.0001 X  -0.4801 Y   0.0003 Z
    Strength   :     0.0729690680
    D(   28) --> V(    6) amplitude =  0.5011
    D(   28) --> V(    9) amplitude = -0.3939
    D(   29) --> V(    7) amplitude = -0.2804
    D(   30) --> V(    4) amplitude =  0.3186
    D(   30) --> V(    5) amplitude = -0.4314
    D(   30) --> V(   10) amplitude = -0.3472

 Excited state  62: excitation energy (eV) =   12.9347
 Total energy for state 62:                  -435.98475026 au
    Multiplicity: Singlet
    Trans. Mom.:  0.0000 X  -0.1992 Y  -0.0000 Z
    Strength   :     0.0125784378
    D(   29) --> V(    7) amplitude =  0.9267

 Excited state  63: excitation energy (eV) =   12.9358
 Total energy for state 63:                  -435.98471061 au
    Multiplicity: Singlet
    Trans. Mom.:  0.0000 X   0.0048 Y   0.0301 Z
    Strength   :     0.0002954003
    D(   23) --> V(    3) amplitude = -0.3460
    D(   28) --> V(    7) amplitude =  0.6429
    D(   29) --> V(    6) amplitude =  0.5334

 Excited state  64: excitation energy (eV) =   12.9389
 Total energy for state 64:                  -435.98459404 au
    Multiplicity: Singlet
    Trans. Mom.: -0.0000 X   0.0004 Y  -0.0933 Z
    Strength   :     0.0027611489
    D(   23) --> V(    3) amplitude =  0.3623
    D(   28) --> V(    7) amplitude = -0.4352
    D(   29) --> V(    6) amplitude =  0.6526
    D(   29) --> V(    9) amplitude = -0.2883
    D(   31) --> V(   10) amplitude = -0.2966

 Excited state  65: excitation energy (eV) =   12.9498
 Total energy for state 65:                  -435.98419630 au
    Multiplicity: Singlet
    Trans. Mom.: -0.0000 X   0.0003 Y   0.0001 Z
    Strength   :     0.0000000321
    D(   18) --> V(    2) amplitude = -0.2413
    D(   20) --> V(    2) amplitude =  0.8305
    D(   30) --> V(    7) amplitude =  0.3201
    D(   31) --> V(    9) amplitude =  0.2184

 Excited state  66: excitation energy (eV) =   13.0426
 Total energy for state 66:                  -435.98078637 au
    Multiplicity: Singlet
    Trans. Mom.:  0.2120 X   0.0003 Y   0.0001 Z
    Strength   :     0.0143587998
    D(   26) --> V(    4) amplitude =  0.6068
    D(   28) --> V(    4) amplitude =  0.3590
    D(   28) --> V(    5) amplitude = -0.3697
    D(   28) --> V(   11) amplitude =  0.2970
    D(   30) --> V(    6) amplitude =  0.3802
    D(   30) --> V(    9) amplitude = -0.2559

 Excited state  67: excitation energy (eV) =   13.1676
 Total energy for state 67:                  -435.97618959 au
    Multiplicity: Singlet
    Trans. Mom.: -0.0001 X  -0.0336 Y  -0.0000 Z
    Strength   :     0.0003647397
    D(   28) --> V(    6) amplitude =  0.5480
    D(   28) --> V(   12) amplitude = -0.3183
    D(   30) --> V(   10) amplitude =  0.4699
    D(   30) --> V(   11) amplitude = -0.5195

 Excited state  68: excitation energy (eV) =   13.2617
 Total energy for state 68:                  -435.97273183 au
    Multiplicity: Singlet
    Trans. Mom.:  0.0000 X   0.0000 Y   0.0127 Z
    Strength   :     0.0000520382
    D(   25) --> V(    4) amplitude =  0.9069
    D(   31) --> V(    5) amplitude = -0.2379
    D(   32) --> V(    6) amplitude =  0.2176

 Excited state  69: excitation energy (eV) =   13.3067
 Total energy for state 69:                  -435.97108112 au
    Multiplicity: Singlet
    Trans. Mom.:  0.0000 X  -0.0000 Y   0.0000 Z
    Strength   :     0.0000000010
    D(   29) --> V(   10) amplitude =  0.6866
    D(   29) --> V(   11) amplitude = -0.6468

 Excited state  70: excitation energy (eV) =   13.3245
 Total energy for state 70:                  -435.97042632 au
    Multiplicity: Singlet
    Trans. Mom.: -0.0700 X  -0.0002 Y   0.0000 Z
    Strength   :     0.0015980139
    D(   28) --> V(   10) amplitude =  0.5035
    D(   28) --> V(   11) amplitude = -0.2846
    D(   30) --> V(    6) amplitude =  0.3882
    D(   30) --> V(    9) amplitude =  0.4846
    D(   30) --> V(   12) amplitude = -0.4562

 Excited state  71: excitation energy (eV) =   13.5006
 Total energy for state 71:                  -435.96395502 au
    Multiplicity: Singlet
    Trans. Mom.: -0.0000 X  -0.3919 Y  -0.0001 Z
    Strength   :     0.0508107100
    D(   27) --> V(    5) amplitude =  0.2162
    D(   28) --> V(    6) amplitude =  0.3822
    D(   28) --> V(    9) amplitude = -0.2540
    D(   30) --> V(    5) amplitude =  0.5197
    D(   30) --> V(   10) amplitude =  0.4289
    D(   30) --> V(   11) amplitude =  0.4210

 Excited state  72: excitation energy (eV) =   13.5362
 Total energy for state 72:                  -435.96264511 au
    Multiplicity: Singlet
    Trans. Mom.: -0.0000 X   0.0002 Y  -0.1718 Z
    Strength   :     0.0097916711
    D(   17) --> V(    1) amplitude = -0.4295
    D(   18) --> V(    1) amplitude =  0.3675
    D(   20) --> V(    3) amplitude =  0.5527
    D(   26) --> V(    7) amplitude =  0.4565

 Excited state  73: excitation energy (eV) =   13.6311
 Total energy for state 73:                  -435.95915911 au
    Multiplicity: Singlet
    Trans. Mom.: -0.0000 X   0.0000 Y   0.1581 Z
    Strength   :     0.0083481467
    D(   17) --> V(    1) amplitude = -0.2989
    D(   21) --> V(    2) amplitude =  0.7370
    D(   22) --> V(    2) amplitude =  0.3058
    D(   29) --> V(    9) amplitude =  0.2694
    D(   29) --> V(   12) amplitude = -0.2543

 Excited state  74: excitation energy (eV) =   13.6381
 Total energy for state 74:                  -435.95889979 au
    Multiplicity: Singlet
    Trans. Mom.: -0.0000 X  -0.0001 Y  -0.0008 Z
    Strength   :     0.0000002051
    D(   29) --> V(    4) amplitude = -0.2376
    D(   29) --> V(    5) amplitude =  0.6918
    D(   29) --> V(   10) amplitude =  0.4635
    D(   29) --> V(   11) amplitude =  0.4415

 Excited state  75: excitation energy (eV) =   13.6625
 Total energy for state 75:                  -435.95800244 au
    Multiplicity: Singlet
    Trans. Mom.: -0.0000 X   0.0002 Y   0.0660 Z
    Strength   :     0.0014567119
    D(   20) --> V(    3) amplitude = -0.2181
    D(   21) --> V(    2) amplitude = -0.4921
    D(   29) --> V(    9) amplitude =  0.5423
    D(   29) --> V(   12) amplitude = -0.4869

 Excited state  76: excitation energy (eV) =   13.6920
 Total energy for state 76:                  -435.95691816 au
    Multiplicity: Singlet
    Trans. Mom.: -0.0030 X  -0.8257 Y  -0.0000 Z
    Strength   :     0.2286970726
    D(   27) --> V(    5) amplitude =  0.8964

 Excited state  77: excitation energy (eV) =   13.6978
 Total energy for state 77:                  -435.95670836 au
    Multiplicity: Singlet
    Trans. Mom.: -0.3048 X   0.0069 Y  -0.0000 Z
    Strength   :     0.0311981259
    D(   27) --> V(    6) amplitude =  0.3570
    D(   28) --> V(    5) amplitude =  0.5132
    D(   28) --> V(   10) amplitude =  0.4645
    D(   28) --> V(   11) amplitude =  0.4268

 Excited state  78: excitation energy (eV) =   13.7231
 Total energy for state 78:                  -435.95577602 au
    Multiplicity: Singlet
    Trans. Mom.: -0.0001 X   0.0010 Y   0.0000 Z
    Strength   :     0.0000003690
    D(   21) --> V(    3) amplitude = -0.3046
    D(   22) --> V(    3) amplitude = -0.3432
    D(   27) --> V(    7) amplitude =  0.8116

 Excited state  79: excitation energy (eV) =   13.8328
 Total energy for state 79:                  -435.95174469 au
    Multiplicity: Singlet
    Trans. Mom.: -0.6013 X   0.0005 Y  -0.0000 Z
    Strength   :     0.1225265889
    D(   23) --> V(    4) amplitude =  0.2398
    D(   27) --> V(    6) amplitude =  0.7923
    D(   28) --> V(    5) amplitude = -0.2766
    D(   28) --> V(   10) amplitude = -0.3021

 Excited state  80: excitation energy (eV) =   13.8656
 Total energy for state 80:                  -435.95053945 au
    Multiplicity: Singlet
    Trans. Mom.: -0.0003 X   0.0001 Y  -0.0000 Z
    Strength   :     0.0000000457
    D(   16) --> V(    1) amplitude = -0.2257
    D(   21) --> V(    3) amplitude =  0.8104
    D(   27) --> V(    7) amplitude =  0.3645

 Excited state  81: excitation energy (eV) =   13.8863
 Total energy for state 81:                  -435.94977923 au
    Multiplicity: Singlet
    Trans. Mom.:  0.0000 X  -0.0000 Y  -0.0449 Z
    Strength   :     0.0006858688
    D(   17) --> V(    1) amplitude =  0.7514
    D(   20) --> V(    3) amplitude =  0.2208
    D(   21) --> V(    2) amplitude =  0.2312
    D(   26) --> V(    7) amplitude =  0.2526
    D(   29) --> V(    9) amplitude =  0.3019
    D(   29) --> V(   12) amplitude = -0.2249

 Excited state  82: excitation energy (eV) =   13.9634
 Total energy for state 82:                  -435.94694561 au
    Multiplicity: Singlet
    Trans. Mom.:  0.8089 X  -0.0001 Y   0.0000 Z
    Strength   :     0.2238427513
    D(   27) --> V(    6) amplitude = -0.2484
    D(   28) --> V(    8) amplitude =  0.2770
    D(   28) --> V(   10) amplitude = -0.3563
    D(   28) --> V(   11) amplitude =  0.5544
    D(   30) --> V(    9) amplitude =  0.4264
    D(   30) --> V(   12) amplitude = -0.3631

 Excited state  83: excitation energy (eV) =   14.1084
 Total energy for state 83:                  -435.94161913 au
    Multiplicity: Singlet
    Trans. Mom.: -0.0002 X   0.0002 Y   0.0001 Z
    Strength   :     0.0000000288
    D(   25) --> V(    6) amplitude = -0.4487
    D(   31) --> V(   12) amplitude =  0.5896
    D(   32) --> V(   13) amplitude =  0.5852

 Excited state  84: excitation energy (eV) =   14.1582
 Total energy for state 84:                  -435.93978901 au
    Multiplicity: Singlet
    Trans. Mom.:  0.0002 X   0.0000 Y  -0.0312 Z
    Strength   :     0.0003375743
    D(   25) --> V(    5) amplitude =  0.6335
    D(   31) --> V(   13) amplitude = -0.4498
    D(   32) --> V(   12) amplitude =  0.4230
    D(   32) --> V(   14) amplitude = -0.2650

 Excited state  85: excitation energy (eV) =   14.1723
 Total energy for state 85:                  -435.93927072 au
    Multiplicity: Singlet
    Trans. Mom.: -0.0002 X  -0.0009 Y  -0.0666 Z
    Strength   :     0.0015425625
    D(   31) --> V(   11) amplitude =  0.8666
    D(   31) --> V(   13) amplitude = -0.3132

 Excited state  86: excitation energy (eV) =   14.1868
 Total energy for state 86:                  -435.93873632 au
    Multiplicity: Singlet
    Trans. Mom.: -0.0006 X   0.9879 Y  -0.0000 Z
    Strength   :     0.3392077229
    D(   22) --> V(    4) amplitude =  0.2153
    D(   24) --> V(    4) amplitude =  0.3735
    D(   26) --> V(    6) amplitude =  0.7819
    D(   28) --> V(    9) amplitude = -0.2758

 Excited state  87: excitation energy (eV) =   14.2280
 Total energy for state 87:                  -435.93722225 au
    Multiplicity: Singlet
    Trans. Mom.: -0.0002 X  -0.0001 Y  -0.0001 Z
    Strength   :     0.0000000176
    D(   31) --> V(   12) amplitude =  0.6732
    D(   32) --> V(   11) amplitude =  0.2545
    D(   32) --> V(   13) amplitude = -0.5491

 Excited state  88: excitation energy (eV) =   14.3076
 Total energy for state 88:                  -435.93429845 au
    Multiplicity: Singlet
    Trans. Mom.: -0.0003 X   0.0000 Y  -0.0184 Z
    Strength   :     0.0001180740
    D(   25) --> V(    5) amplitude = -0.2255
    D(   31) --> V(   11) amplitude =  0.2379
    D(   31) --> V(   13) amplitude =  0.2390
    D(   32) --> V(   12) amplitude =  0.8127
    D(   32) --> V(   14) amplitude =  0.2543

 Excited state  89: excitation energy (eV) =   14.3258
 Total energy for state 89:                  -435.93362740 au
    Multiplicity: Singlet
    Trans. Mom.: -0.0002 X  -0.0149 Y   0.0000 Z
    Strength   :     0.0000780478
    D(   19) --> V(    2) amplitude =  0.9767

 Excited state  90: excitation energy (eV) =   14.4016
 Total energy for state 90:                  -435.93084402 au
    Multiplicity: Singlet
    Trans. Mom.: -1.0769 X  -0.0002 Y  -0.0001 Z
    Strength   :     0.4091822220
    D(   25) --> V(    7) amplitude =  0.2229
    D(   26) --> V(    5) amplitude =  0.8322
    D(   30) --> V(   12) amplitude =  0.2243

 Excited state  91: excitation energy (eV) =   14.4098
 Total energy for state 91:                  -435.93053964 au
    Multiplicity: Singlet
    Trans. Mom.:  0.0022 X   0.0001 Y  -0.0000 Z
    Strength   :     0.0000016821
    D(   17) --> V(    2) amplitude = -0.5462
    D(   18) --> V(    2) amplitude =  0.6448
    D(   24) --> V(    7) amplitude = -0.2544

 Excited state  92: excitation energy (eV) =   14.4414
 Total energy for state 92:                  -435.92938088 au
    Multiplicity: Singlet
    Trans. Mom.:  0.0006 X   0.2340 Y  -0.0000 Z
    Strength   :     0.0193735570
    D(   27) --> V(    8) amplitude =  0.2421
    D(   28) --> V(   12) amplitude = -0.2968
    D(   30) --> V(    8) amplitude =  0.7986
    D(   30) --> V(   13) amplitude = -0.2426

 Excited state  93: excitation energy (eV) =   14.4484
 Total energy for state 93:                  -435.92912425 au
    Multiplicity: Singlet
    Trans. Mom.: -0.0002 X   0.0001 Y   0.0343 Z
    Strength   :     0.0004166919
    D(   20) --> V(    3) amplitude = -0.5901
    D(   26) --> V(    7) amplitude =  0.7450

 Excited state  94: excitation energy (eV) =   14.4866
 Total energy for state 94:                  -435.92771907 au
    Multiplicity: Singlet
    Trans. Mom.:  0.0000 X  -0.0001 Y  -0.0287 Z
    Strength   :     0.0002916602
    D(   31) --> V(   13) amplitude = -0.5680
    D(   32) --> V(   14) amplitude =  0.7524

 Excited state  95: excitation energy (eV) =   14.4935
 Total energy for state 95:                  -435.92746389 au
    Multiplicity: Singlet
    Trans. Mom.: -0.0002 X  -0.0001 Y   0.0004 Z
    Strength   :     0.0000000851
    D(   25) --> V(    6) amplitude = -0.3050
    D(   31) --> V(   14) amplitude = -0.3218
    D(   32) --> V(   11) amplitude =  0.8066

 Excited state  96: excitation energy (eV) =   14.5270
 Total energy for state 96:                  -435.92623526 au
    Multiplicity: Singlet
    Trans. Mom.:  0.0001 X  -0.2322 Y   0.0000 Z
    Strength   :     0.0191958604
    D(   27) --> V(    8) amplitude = -0.3360
    D(   28) --> V(    6) amplitude =  0.3131
    D(   28) --> V(    9) amplitude =  0.7153
    D(   30) --> V(   11) amplitude =  0.2373

 Excited state  97: excitation energy (eV) =   14.6454
 Total energy for state 97:                  -435.92188467 au
    Multiplicity: Singlet
    Trans. Mom.:  0.0740 X   0.0000 Y   0.0001 Z
    Strength   :     0.0019638683
    D(   19) --> V(    3) amplitude =  0.4062
    D(   25) --> V(    7) amplitude =  0.8197

 Excited state  98: excitation energy (eV) =   14.6573
 Total energy for state 98:                  -435.92144402 au
    Multiplicity: Singlet
    Trans. Mom.: -0.0002 X  -0.0000 Y   0.0000 Z
    Strength   :     0.0000000093
    D(   16) --> V(    1) amplitude = -0.3176
    D(   25) --> V(    6) amplitude =  0.2532
    D(   31) --> V(   14) amplitude =  0.7068
    D(   32) --> V(   11) amplitude =  0.3228
    D(   32) --> V(   13) amplitude =  0.3810

 Excited state  99: excitation energy (eV) =   14.6884
 Total energy for state 99:                  -435.92030323 au
    Multiplicity: Singlet
    Trans. Mom.:  0.9639 X  -0.0003 Y   0.0000 Z
    Strength   :     0.3343677623
    D(   19) --> V(    3) amplitude =  0.2194
    D(   26) --> V(    5) amplitude = -0.2452
    D(   28) --> V(    8) amplitude = -0.3795
    D(   30) --> V(    6) amplitude =  0.2576
    D(   30) --> V(    9) amplitude =  0.5047
    D(   30) --> V(   12) amplitude =  0.5609

 Excited state 100: excitation energy (eV) =   14.7433
 Total energy for state100:                  -435.91828708 au
    Multiplicity: Singlet
    Trans. Mom.:  0.0002 X   0.0004 Y  -0.0000 Z
    Strength   :     0.0000000864
    D(   16) --> V(    1) amplitude =  0.8119
    D(   21) --> V(    3) amplitude =  0.2247
    D(   31) --> V(   14) amplitude =  0.2681
 
 ---------------------------------------------------

 Direct TDDFT calculation will be performed
 Exchange:     0.2220 Hartree-Fock + 1.0000 wB97X-D + LR-HF
 Correlation:  1.0000 wB97X-D
 Using SG-2 standard quadrature grid
 Dispersion:   Grimme D
 ---------------------------------------------------
 Iter    Rts Conv    Rts Left    Ttl Dev     Max Dev
 ---------------------------------------------------
   1         0         100      0.054926    0.002455
   2         0         100      0.011462    0.000397
   3         0         100      0.003557    0.000116
   4         5          95      0.001338    0.000082
   5        43          57      0.000573    0.000053
   6        64          36      0.000521    0.000299
   7        79          21      0.000241    0.000158
   8        92           8      0.000106    0.000058
   9        99           1      0.000063    0.000024
  10        99           1      0.000048    0.000009
  11        99           1      0.000042    0.000003
  12        99           1      0.000040    0.000001
  13       100           0      0.000040    0.000001    Roots Converged
 ---------------------------------------------------
 
 ---------------------------------------------------
             TDDFT Excitation Energies              
 ---------------------------------------------------

 Excited state   1: excitation energy (eV) =    3.5438
 Total energy for state  1:                  -436.32985893 au
    Multiplicity: Singlet 
    Trans. Mom.: -0.0001 X  -0.0000 Y   0.0000 Z
    Strength   :     0.0000000007
    X: D(   30) --> V(    1) amplitude =  0.9683
    X: D(   30) --> V(    3) amplitude = -0.2482

 Excited state   2: excitation energy (eV) =    4.0376
 Total energy for state  2:                  -436.31171243 au
    Multiplicity: Singlet 
    Trans. Mom.: -0.0001 X  -0.0000 Y   0.0309 Z
    Strength   :     0.0000946697
    X: D(   28) --> V(    1) amplitude =  0.9687
    X: D(   28) --> V(    3) amplitude = -0.2381

 Excited state   3: excitation energy (eV) =    4.8013
 Total energy for state  3:                  -436.28364879 au
    Multiplicity: Singlet 
    Trans. Mom.: -0.0003 X  -0.3875 Y  -0.0000 Z
    Strength   :     0.0176589400
    X: D(   31) --> V(    2) amplitude =  0.2924
    X: D(   32) --> V(    1) amplitude =  0.9497

 Excited state   4: excitation energy (eV) =    5.1148
 Total energy for state  4:                  -436.27212616 au
    Multiplicity: Singlet 
    Trans. Mom.: -1.3881 X   0.0001 Y   0.0001 Z
    Strength   :     0.2414470763
    X: D(   31) --> V(    1) amplitude =  0.9777

 Excited state   5: excitation energy (eV) =    6.1589
 Total energy for state  5:                  -436.23375463 au
    Multiplicity: Singlet 
    Trans. Mom.: -0.0000 X  -0.4964 Y   0.0001 Z
    Strength   :     0.0371806699
    X: D(   29) --> V(    1) amplitude =  0.9018
    X: D(   31) --> V(    2) amplitude =  0.3487

 Excited state   6: excitation energy (eV) =    6.5126
 Total energy for state  6:                  -436.22075887 au
    Multiplicity: Singlet 
    Trans. Mom.: -0.0000 X   0.7191 Y  -0.0000 Z
    Strength   :     0.0824966611
    X: D(   29) --> V(    1) amplitude = -0.3976
    X: D(   31) --> V(    2) amplitude =  0.6831
    X: D(   32) --> V(    1) amplitude = -0.2565
    X: D(   32) --> V(    3) amplitude =  0.5524

 Excited state   7: excitation energy (eV) =    6.9762
 Total energy for state  7:                  -436.20372208 au
    Multiplicity: Singlet 
    Trans. Mom.: -1.0367 X   0.0002 Y  -0.0001 Z
    Strength   :     0.1836856125
    X: D(   31) --> V(    3) amplitude = -0.4319
    X: D(   32) --> V(    2) amplitude =  0.8763

 Excited state   8: excitation energy (eV) =    7.0579
 Total energy for state  8:                  -436.20071824 au
    Multiplicity: Singlet 
    Trans. Mom.: -0.0000 X   0.0000 Y   0.0000 Z
    Strength   :     0.0000000002
    X: D(   27) --> V(    1) amplitude =  0.9585

 Excited state   9: excitation energy (eV) =    7.6552
 Total energy for state  9:                  -436.17876737 au
    Multiplicity: Singlet 
    Trans. Mom.: -0.0001 X  -0.0000 Y   0.0561 Z
    Strength   :     0.0005902258
    X: D(   26) --> V(    1) amplitude =  0.8517
    X: D(   26) --> V(    3) amplitude =  0.2258
    X: D(   30) --> V(    2) amplitude = -0.3890

 Excited state  10: excitation energy (eV) =    7.7710
 Total energy for state 10:                  -436.17451114 au
    Multiplicity: Singlet 
    Trans. Mom.:  0.0000 X   0.0004 Y  -0.0122 Z
    Strength   :     0.0000281376
    X: D(   26) --> V(    1) amplitude =  0.3354
    X: D(   30) --> V(    2) amplitude =  0.9058

 Excited state  11: excitation energy (eV) =    7.9342
 Total energy for state 11:                  -436.16851597 au
    Multiplicity: Singlet 
    Trans. Mom.:  0.0009 X   0.0014 Y  -0.0000 Z
    Strength   :     0.0000005571
    X: D(   28) --> V(    2) amplitude =  0.6889
    X: D(   30) --> V(    3) amplitude = -0.6712

 Excited state  12: excitation energy (eV) =    7.9862
 Total energy for state 12:                  -436.16660580 au
    Multiplicity: Singlet 
    Trans. Mom.: -0.0055 X  -1.6404 Y  -0.0001 Z
    Strength   :     0.5265244687
    X: D(   31) --> V(    2) amplitude = -0.5678
    X: D(   32) --> V(    3) amplitude =  0.8042

 Excited state  13: excitation energy (eV) =    7.9903
 Total energy for state 13:                  -436.16645438 au
    Multiplicity: Singlet 
    Trans. Mom.: -1.2729 X   0.0068 Y   0.0000 Z
    Strength   :     0.3171837847
    X: D(   29) --> V(    2) amplitude = -0.2899
    X: D(   31) --> V(    3) amplitude =  0.8110
    X: D(   32) --> V(    2) amplitude =  0.4479

 Excited state  14: excitation energy (eV) =    8.0209
 Total energy for state 14:                  -436.16533045 au
    Multiplicity: Singlet 
    Trans. Mom.:  0.0026 X  -0.0014 Y  -0.0000 Z
    Strength   :     0.0000016710
    X: D(   28) --> V(    2) amplitude =  0.6876
    X: D(   30) --> V(    3) amplitude =  0.6652

 Excited state  15: excitation energy (eV) =    8.1046
 Total energy for state 15:                  -436.16225288 au
    Multiplicity: Singlet 
    Trans. Mom.: -0.3477 X   0.0003 Y   0.0000 Z
    Strength   :     0.0240069524
    X: D(   29) --> V(    2) amplitude =  0.9380
    X: D(   31) --> V(    3) amplitude =  0.3120

 Excited state  16: excitation energy (eV) =    8.2632
 Total energy for state 16:                  -436.15642631 au
    Multiplicity: Singlet 
    Trans. Mom.:  0.0004 X   0.0003 Y  -0.0342 Z
    Strength   :     0.0002368418
    X: D(   26) --> V(    1) amplitude =  0.2612
    X: D(   28) --> V(    1) amplitude =  0.2164
    X: D(   28) --> V(    3) amplitude =  0.9041

 Excited state  17: excitation energy (eV) =    8.3413
 Total energy for state 17:                  -436.15355440 au
    Multiplicity: Singlet 
    Trans. Mom.: -0.0351 X   0.0003 Y   0.0001 Z
    Strength   :     0.0002514620
    X: D(   25) --> V(    1) amplitude =  0.9452

 Excited state  18: excitation energy (eV) =    8.4286
 Total energy for state 18:                  -436.15034689 au
    Multiplicity: Singlet 
    Trans. Mom.: -0.0003 X   0.0001 Y  -0.1651 Z
    Strength   :     0.0056266653
    X: D(   27) --> V(    2) amplitude =  0.9881

 Excited state  19: excitation energy (eV) =    8.5461
 Total energy for state 19:                  -436.14602689 au
    Multiplicity: Singlet 
    Trans. Mom.: -0.0000 X   0.3301 Y  -0.0001 Z
    Strength   :     0.0228104086
    X: D(   29) --> V(    3) amplitude =  0.9753

 Excited state  20: excitation energy (eV) =    8.8957
 Total energy for state 20:                  -436.13318139 au
    Multiplicity: Singlet 
    Trans. Mom.: -0.0000 X  -0.0002 Y   0.0000 Z
    Strength   :     0.0000000060
    X: D(   24) --> V(    1) amplitude =  0.2711
    X: D(   26) --> V(    2) amplitude =  0.9005
    X: D(   27) --> V(    3) amplitude =  0.2285

 Excited state  21: excitation energy (eV) =    9.0691
 Total energy for state 21:                  -436.12680746 au
    Multiplicity: Singlet 
    Trans. Mom.:  0.0000 X  -0.0001 Y  -0.0000 Z
    Strength   :     0.0000000019
    X: D(   22) --> V(    1) amplitude = -0.6033
    X: D(   24) --> V(    1) amplitude =  0.3266
    X: D(   26) --> V(    2) amplitude = -0.2768
    X: D(   27) --> V(    3) amplitude =  0.6146

 Excited state  22: excitation energy (eV) =    9.4048
 Total energy for state 22:                  -436.11447043 au
    Multiplicity: Singlet 
    Trans. Mom.:  0.0001 X  -0.0000 Y  -0.0000 Z
    Strength   :     0.0000000013
    X: D(   21) --> V(    1) amplitude = -0.2309
    X: D(   22) --> V(    1) amplitude = -0.3575
    X: D(   24) --> V(    1) amplitude = -0.3559
    X: D(   32) --> V(    4) amplitude =  0.7970

 Excited state  23: excitation energy (eV) =    9.4375
 Total energy for state 23:                  -436.11326826 au
    Multiplicity: Singlet 
    Trans. Mom.:  0.0000 X   0.0001 Y  -0.0000 Z
    Strength   :     0.0000000015
    X: D(   21) --> V(    1) amplitude =  0.2371
    X: D(   22) --> V(    1) amplitude =  0.4213
    X: D(   24) --> V(    1) amplitude =  0.5760
    X: D(   32) --> V(    4) amplitude =  0.5660

 Excited state  24: excitation energy (eV) =    9.5415
 Total energy for state 24:                  -436.10944691 au
    Multiplicity: Singlet 
    Trans. Mom.:  0.0000 X  -0.0000 Y  -0.1062 Z
    Strength   :     0.0026373413
    X: D(   31) --> V(    4) amplitude =  0.9555

 Excited state  25: excitation energy (eV) =    9.8356
 Total energy for state 25:                  -436.09864169 au
    Multiplicity: Singlet 
    Trans. Mom.:  0.0002 X  -0.0001 Y   0.1500 Z
    Strength   :     0.0054224540
    X: D(   20) --> V(    1) amplitude = -0.3823
    X: D(   23) --> V(    1) amplitude = -0.4024
    X: D(   26) --> V(    3) amplitude =  0.7465

 Excited state  26: excitation energy (eV) =    9.8523
 Total energy for state 26:                  -436.09802483 au
    Multiplicity: Singlet 
    Trans. Mom.:  0.0001 X  -0.0001 Y  -0.0002 Z
    Strength   :     0.0000000119
    X: D(   21) --> V(    1) amplitude =  0.3127
    X: D(   22) --> V(    1) amplitude =  0.2615
    X: D(   24) --> V(    1) amplitude = -0.5294
    X: D(   27) --> V(    1) amplitude = -0.2380
    X: D(   27) --> V(    3) amplitude =  0.6612

 Excited state  27: excitation energy (eV) =    9.9213
 Total energy for state 27:                  -436.09548924 au
    Multiplicity: Singlet 
    Trans. Mom.: -0.0001 X  -0.0415 Y  -0.0000 Z
    Strength   :     0.0004194363
    X: D(   25) --> V(    2) amplitude =  0.9789

 Excited state  28: excitation energy (eV) =   10.0963
 Total energy for state 28:                  -436.08905872 au
    Multiplicity: Singlet 
    Trans. Mom.: -0.0000 X  -0.0000 Y  -0.0216 Z
    Strength   :     0.0001154814
    X: D(   23) --> V(    1) amplitude =  0.8396
    X: D(   24) --> V(    2) amplitude = -0.2222
    X: D(   26) --> V(    3) amplitude =  0.3799

 Excited state  29: excitation energy (eV) =   10.2189
 Total energy for state 29:                  -436.08455257 au
    Multiplicity: Singlet 
    Trans. Mom.:  0.0000 X   0.0778 Y  -0.0000 Z
    Strength   :     0.0015142953
    X: D(   30) --> V(    4) amplitude =  0.7971
    X: D(   30) --> V(    5) amplitude =  0.5133

 Excited state  30: excitation energy (eV) =   10.3550
 Total energy for state 30:                  -436.07955379 au
    Multiplicity: Singlet 
    Trans. Mom.: -0.0000 X  -0.0000 Y   0.0000 Z
    Strength   :     0.0000000007
    X: D(   21) --> V(    1) amplitude =  0.7291
    X: D(   22) --> V(    1) amplitude = -0.4130
    X: D(   22) --> V(    3) amplitude = -0.3144
    X: D(   29) --> V(    4) amplitude = -0.2724

 Excited state  31: excitation energy (eV) =   10.4653
 Total energy for state 31:                  -436.07549909 au
    Multiplicity: Singlet 
    Trans. Mom.: -0.0000 X   0.0001 Y   0.0000 Z
    Strength   :     0.0000000009
    X: D(   21) --> V(    1) amplitude =  0.3087
    X: D(   29) --> V(    4) amplitude =  0.7223
    X: D(   29) --> V(    5) amplitude =  0.4750

 Excited state  32: excitation energy (eV) =   10.5983
 Total energy for state 32:                  -436.07061151 au
    Multiplicity: Singlet 
    Trans. Mom.: -0.0001 X   0.0000 Y   0.0264 Z
    Strength   :     0.0001811061
    X: D(   24) --> V(    2) amplitude =  0.9354

 Excited state  33: excitation energy (eV) =   10.7125
 Total energy for state 33:                  -436.06641428 au
    Multiplicity: Singlet 
    Trans. Mom.:  0.0002 X   0.0000 Y  -0.0617 Z
    Strength   :     0.0009989174
    X: D(   25) --> V(    4) amplitude =  0.3260
    X: D(   31) --> V(    5) amplitude =  0.7319
    X: D(   32) --> V(    6) amplitude = -0.5731

 Excited state  34: excitation energy (eV) =   10.7354
 Total energy for state 34:                  -436.06557343 au
    Multiplicity: Singlet 
    Trans. Mom.: -0.3239 X   0.0001 Y  -0.0000 Z
    Strength   :     0.0276002956
    X: D(   25) --> V(    3) amplitude =  0.8509
    X: D(   28) --> V(    4) amplitude = -0.3865
    X: D(   28) --> V(    5) amplitude = -0.2611

 Excited state  35: excitation energy (eV) =   10.9186
 Total energy for state 35:                  -436.05884192 au
    Multiplicity: Singlet 
    Trans. Mom.:  0.5547 X  -0.0000 Y   0.0000 Z
    Strength   :     0.0823126448
    X: D(   25) --> V(    3) amplitude =  0.4832
    X: D(   28) --> V(    4) amplitude =  0.6822
    X: D(   28) --> V(    5) amplitude =  0.3950

 Excited state  36: excitation energy (eV) =   10.9676
 Total energy for state 36:                  -436.05703823 au
    Multiplicity: Singlet 
    Trans. Mom.: -0.0002 X  -0.0000 Y  -0.0001 Z
    Strength   :     0.0000000167
    X: D(   31) --> V(    6) amplitude = -0.2475
    X: D(   32) --> V(    5) amplitude =  0.9268

 Excited state  37: excitation energy (eV) =   11.0224
 Total energy for state 37:                  -436.05502635 au
    Multiplicity: Singlet 
    Trans. Mom.:  0.0000 X  -0.0000 Y  -0.0433 Z
    Strength   :     0.0005053346
    X: D(   31) --> V(    5) amplitude =  0.5991
    X: D(   32) --> V(    6) amplitude =  0.7401

 Excited state  38: excitation energy (eV) =   11.0834
 Total energy for state 38:                  -436.05278456 au
    Multiplicity: Singlet 
    Trans. Mom.:  0.0002 X  -0.0000 Y  -0.1293 Z
    Strength   :     0.0045379629
    X: D(   18) --> V(    1) amplitude =  0.2921
    X: D(   20) --> V(    1) amplitude =  0.6060
    X: D(   21) --> V(    2) amplitude =  0.2207
    X: D(   22) --> V(    2) amplitude = -0.5568
    X: D(   26) --> V(    3) amplitude =  0.2511

 Excited state  39: excitation energy (eV) =   11.2111
 Total energy for state 39:                  -436.04809156 au
    Multiplicity: Singlet 
    Trans. Mom.: -0.0000 X   0.0000 Y   0.0002 Z
    Strength   :     0.0000000130
    X: D(   23) --> V(    2) amplitude =  0.8727
    X: D(   24) --> V(    3) amplitude = -0.2450
    X: D(   27) --> V(    7) amplitude =  0.2629

 Excited state  40: excitation energy (eV) =   11.2297
 Total energy for state 40:                  -436.04740946 au
    Multiplicity: Singlet 
    Trans. Mom.:  0.0000 X  -0.0000 Y  -0.1438 Z
    Strength   :     0.0056860813
    X: D(   20) --> V(    1) amplitude =  0.4805
    X: D(   21) --> V(    2) amplitude = -0.2775
    X: D(   22) --> V(    2) amplitude =  0.6848
    X: D(   26) --> V(    3) amplitude =  0.2964

 Excited state  41: excitation energy (eV) =   11.2973
 Total energy for state 41:                  -436.04492334 au
    Multiplicity: Singlet 
    Trans. Mom.:  0.0001 X  -0.0256 Y   0.0001 Z
    Strength   :     0.0001814766
    X: D(   32) --> V(    7) amplitude =  0.9739

 Excited state  42: excitation energy (eV) =   11.3565
 Total energy for state 42:                  -436.04274609 au
    Multiplicity: Singlet 
    Trans. Mom.: -0.0001 X  -0.0000 Y   0.0001 Z
    Strength   :     0.0000000025
    X: D(   31) --> V(    6) amplitude =  0.9317
    X: D(   32) --> V(    5) amplitude =  0.2338

 Excited state  43: excitation energy (eV) =   11.3653
 Total energy for state 43:                  -436.04242384 au
    Multiplicity: Singlet 
    Trans. Mom.: -0.0416 X   0.0001 Y  -0.0000 Z
    Strength   :     0.0004815750
    X: D(   19) --> V(    1) amplitude =  0.4333
    X: D(   31) --> V(    7) amplitude =  0.8808

 Excited state  44: excitation energy (eV) =   11.8116
 Total energy for state 44:                  -436.02602435 au
    Multiplicity: Singlet 
    Trans. Mom.: -0.5041 X  -0.0000 Y  -0.0000 Z
    Strength   :     0.0735439650
    X: D(   19) --> V(    1) amplitude =  0.8181
    X: D(   28) --> V(    4) amplitude = -0.2927
    X: D(   31) --> V(    7) amplitude = -0.3852

 Excited state  45: excitation energy (eV) =   11.9102
 Total energy for state 45:                  -436.02240082 au
    Multiplicity: Singlet 
    Trans. Mom.: -0.0001 X  -0.0000 Y   0.0003 Z
    Strength   :     0.0000000366
    X: D(   23) --> V(    2) amplitude =  0.3078
    X: D(   24) --> V(    3) amplitude =  0.8998

 Excited state  46: excitation energy (eV) =   11.9340
 Total energy for state 46:                  -436.02152572 au
    Multiplicity: Singlet 
    Trans. Mom.: -0.0001 X  -0.0000 Y  -0.1757 Z
    Strength   :     0.0090294618
    X: D(   18) --> V(    1) amplitude =  0.6985
    X: D(   20) --> V(    1) amplitude = -0.3048
    X: D(   20) --> V(    3) amplitude = -0.3387
    X: D(   23) --> V(    3) amplitude = -0.5059

 Excited state  47: excitation energy (eV) =   12.1041
 Total energy for state 47:                  -436.01527551 au
    Multiplicity: Singlet 
    Trans. Mom.: -0.0000 X  -0.0001 Y  -0.0000 Z
    Strength   :     0.0000000014
    X: D(   22) --> V(    3) amplitude =  0.2195
    X: D(   32) --> V(    8) amplitude =  0.6938
    X: D(   32) --> V(   10) amplitude =  0.5700

 Excited state  48: excitation energy (eV) =   12.2024
 Total energy for state 48:                  -436.01166348 au
    Multiplicity: Singlet 
    Trans. Mom.:  0.0001 X   0.2046 Y   0.0000 Z
    Strength   :     0.0125138974
    X: D(   27) --> V(    4) amplitude =  0.7060
    X: D(   28) --> V(    6) amplitude = -0.2572
    X: D(   30) --> V(    4) amplitude =  0.3158
    X: D(   30) --> V(    5) amplitude = -0.2887
    X: D(   30) --> V(   10) amplitude =  0.4054

 Excited state  49: excitation energy (eV) =   12.2595
 Total energy for state 49:                  -436.00956263 au
    Multiplicity: Singlet 
    Trans. Mom.:  0.0000 X   0.0002 Y  -0.0000 Z
    Strength   :     0.0000000092
    X: D(   21) --> V(    1) amplitude =  0.2435
    X: D(   21) --> V(    3) amplitude = -0.2603
    X: D(   22) --> V(    3) amplitude =  0.7606
    X: D(   27) --> V(    7) amplitude =  0.2207
    X: D(   30) --> V(    7) amplitude =  0.2307
    X: D(   32) --> V(    8) amplitude = -0.3109

 Excited state  50: excitation energy (eV) =   12.2904
 Total energy for state 50:                  -436.00842670 au
    Multiplicity: Singlet 
    Trans. Mom.: -0.0001 X  -0.0001 Y   0.0344 Z
    Strength   :     0.0003554430
    X: D(   31) --> V(    8) amplitude =  0.7810
    X: D(   31) --> V(   10) amplitude =  0.4881

 Excited state  51: excitation energy (eV) =   12.3738
 Total energy for state 51:                  -436.00536430 au
    Multiplicity: Singlet 
    Trans. Mom.: -0.0706 X  -0.0001 Y  -0.0000 Z
    Strength   :     0.0015106386
    X: D(   28) --> V(   10) amplitude = -0.4244
    X: D(   30) --> V(    6) amplitude =  0.7115
    X: D(   30) --> V(    9) amplitude = -0.3193

 Excited state  52: excitation energy (eV) =   12.3957
 Total energy for state 52:                  -436.00455820 au
    Multiplicity: Singlet 
    Trans. Mom.:  0.0000 X  -0.0003 Y   0.0402 Z
    Strength   :     0.0004900569
    X: D(   32) --> V(    9) amplitude =  0.9307

 Excited state  53: excitation energy (eV) =   12.3979
 Total energy for state 53:                  -436.00447723 au
    Multiplicity: Singlet 
    Trans. Mom.:  0.0000 X   0.1091 Y   0.0001 Z
    Strength   :     0.0036152923
    X: D(   27) --> V(    4) amplitude =  0.6740
    X: D(   30) --> V(    4) amplitude = -0.3544
    X: D(   30) --> V(    5) amplitude =  0.3260
    X: D(   30) --> V(   10) amplitude = -0.4014

 Excited state  54: excitation energy (eV) =   12.4238
 Total energy for state 54:                  -436.00352630 au
    Multiplicity: Singlet 
    Trans. Mom.: -0.0001 X   0.0002 Y   0.0000 Z
    Strength   :     0.0000000097
    X: D(   32) --> V(    8) amplitude = -0.5848
    X: D(   32) --> V(   10) amplitude =  0.6924

 Excited state  55: excitation energy (eV) =   12.5127
 Total energy for state 55:                  -436.00025828 au
    Multiplicity: Singlet 
    Trans. Mom.: -0.0001 X  -0.0001 Y  -0.0000 Z
    Strength   :     0.0000000040
    X: D(   29) --> V(    4) amplitude = -0.4561
    X: D(   29) --> V(    5) amplitude =  0.3511
    X: D(   29) --> V(   10) amplitude = -0.4386
    X: D(   29) --> V(   11) amplitude = -0.3478
    X: D(   31) --> V(    9) amplitude =  0.4456
    X: D(   32) --> V(   10) amplitude = -0.2653

 Excited state  56: excitation energy (eV) =   12.5713
 Total energy for state 56:                  -435.99810353 au
    Multiplicity: Singlet 
    Trans. Mom.:  0.0001 X  -0.0001 Y  -0.0000 Z
    Strength   :     0.0000000055
    X: D(   20) --> V(    2) amplitude = -0.3106
    X: D(   29) --> V(    4) amplitude =  0.2824
    X: D(   29) --> V(    5) amplitude = -0.2160
    X: D(   30) --> V(    7) amplitude =  0.3889
    X: D(   31) --> V(    9) amplitude =  0.6370

 Excited state  57: excitation energy (eV) =   12.6115
 Total energy for state 57:                  -435.99662720 au
    Multiplicity: Singlet 
    Trans. Mom.: -0.0000 X   0.0000 Y  -0.0003 Z
    Strength   :     0.0000000308
    X: D(   23) --> V(    3) amplitude =  0.2469
    X: D(   31) --> V(    8) amplitude = -0.5575
    X: D(   31) --> V(   10) amplitude =  0.6427

 Excited state  58: excitation energy (eV) =   12.6507
 Total energy for state 58:                  -435.99518644 au
    Multiplicity: Singlet 
    Trans. Mom.: -0.0035 X  -0.0001 Y   0.0000 Z
    Strength   :     0.0000038272
    X: D(   30) --> V(    7) amplitude =  0.7768
    X: D(   31) --> V(    9) amplitude = -0.4949

 Excited state  59: excitation energy (eV) =   12.6534
 Total energy for state 59:                  -435.99508721 au
    Multiplicity: Singlet 
    Trans. Mom.:  0.4119 X   0.0002 Y   0.0000 Z
    Strength   :     0.0525859064
    X: D(   26) --> V(    4) amplitude =  0.7313
    X: D(   28) --> V(    4) amplitude = -0.2857
    X: D(   28) --> V(    5) amplitude =  0.3894
    X: D(   28) --> V(   11) amplitude = -0.2280

 Excited state  60: excitation energy (eV) =   12.7521
 Total energy for state 60:                  -435.99146174 au
    Multiplicity: Singlet 
    Trans. Mom.: -0.0001 X  -0.0001 Y  -0.0911 Z
    Strength   :     0.0025939504
    X: D(   18) --> V(    1) amplitude =  0.2577
    X: D(   23) --> V(    3) amplitude =  0.5547
    X: D(   28) --> V(    7) amplitude =  0.4575
    X: D(   31) --> V(   10) amplitude = -0.4311
    X: D(   32) --> V(    9) amplitude =  0.2454

 Excited state  61: excitation energy (eV) =   12.9017
 Total energy for state 61:                  -435.98596123 au
    Multiplicity: Singlet 
    Trans. Mom.:  0.0001 X  -0.4697 Y   0.0001 Z
    Strength   :     0.0697232555
    X: D(   28) --> V(    6) amplitude =  0.5230
    X: D(   28) --> V(    9) amplitude = -0.4016
    X: D(   30) --> V(    4) amplitude =  0.3196
    X: D(   30) --> V(    5) amplitude = -0.4253
    X: D(   30) --> V(   10) amplitude = -0.3942
    X: D(   30) --> V(   11) amplitude =  0.2212

 Excited state  62: excitation energy (eV) =   12.9296
 Total energy for state 62:                  -435.98493652 au
    Multiplicity: Singlet 
    Trans. Mom.:  0.0000 X  -0.0367 Y  -0.0010 Z
    Strength   :     0.0004266508
    X: D(   29) --> V(    7) amplitude =  0.9704

 Excited state  63: excitation energy (eV) =   12.9311
 Total energy for state 63:                  -435.98488303 au
    Multiplicity: Singlet 
    Trans. Mom.:  0.0000 X   0.0004 Y   0.0678 Z
    Strength   :     0.0014558359
    X: D(   23) --> V(    3) amplitude = -0.4608
    X: D(   28) --> V(    7) amplitude =  0.8065

 Excited state  64: excitation energy (eV) =   12.9341
 Total energy for state 64:                  -435.98477293 au
    Multiplicity: Singlet 
    Trans. Mom.: -0.0000 X   0.0003 Y   0.0002 Z
    Strength   :     0.0000000327
    X: D(   18) --> V(    2) amplitude = -0.2413
    X: D(   20) --> V(    2) amplitude =  0.8289
    X: D(   30) --> V(    7) amplitude =  0.3465

 Excited state  65: excitation energy (eV) =   12.9353
 Total energy for state 65:                  -435.98472991 au
    Multiplicity: Singlet 
    Trans. Mom.:  0.0000 X   0.0004 Y  -0.0511 Z
    Strength   :     0.0008272270
    X: D(   29) --> V(    6) amplitude =  0.8487
    X: D(   29) --> V(    9) amplitude = -0.3580
    X: D(   31) --> V(   10) amplitude = -0.3081

 Excited state  66: excitation energy (eV) =   13.0214
 Total energy for state 66:                  -435.98156257 au
    Multiplicity: Singlet 
    Trans. Mom.:  0.2387 X   0.0003 Y   0.0001 Z
    Strength   :     0.0181756906
    X: D(   26) --> V(    4) amplitude =  0.5906
    X: D(   28) --> V(    4) amplitude =  0.3679
    X: D(   28) --> V(    5) amplitude = -0.3602
    X: D(   28) --> V(   11) amplitude =  0.3060
    X: D(   30) --> V(    6) amplitude =  0.3760
    X: D(   30) --> V(    9) amplitude = -0.2823

 Excited state  67: excitation energy (eV) =   13.1556
 Total energy for state 67:                  -435.97663116 au
    Multiplicity: Singlet 
    Trans. Mom.: -0.0001 X  -0.0612 Y  -0.0000 Z
    Strength   :     0.0012078618
    X: D(   28) --> V(    6) amplitude =  0.5457
    X: D(   28) --> V(   12) amplitude = -0.3040
    X: D(   30) --> V(   10) amplitude =  0.4571
    X: D(   30) --> V(   11) amplitude = -0.5360

 Excited state  68: excitation energy (eV) =   13.2604
 Total energy for state 68:                  -435.97278093 au
    Multiplicity: Singlet 
    Trans. Mom.:  0.0000 X   0.0000 Y   0.0133 Z
    Strength   :     0.0000574305
    X: D(   25) --> V(    4) amplitude =  0.9066
    X: D(   31) --> V(    5) amplitude = -0.2381
    X: D(   32) --> V(    6) amplitude =  0.2179

 Excited state  69: excitation energy (eV) =   13.2962
 Total energy for state 69:                  -435.97146494 au
    Multiplicity: Singlet 
    Trans. Mom.:  0.0000 X  -0.0000 Y   0.0000 Z
    Strength   :     0.0000000006
    X: D(   29) --> V(   10) amplitude =  0.6863
    X: D(   29) --> V(   11) amplitude = -0.6502

 Excited state  70: excitation energy (eV) =   13.3043
 Total energy for state 70:                  -435.97116597 au
    Multiplicity: Singlet 
    Trans. Mom.: -0.0699 X  -0.0002 Y   0.0000 Z
    Strength   :     0.0015938128
    X: D(   28) --> V(   10) amplitude =  0.5003
    X: D(   28) --> V(   11) amplitude = -0.2936
    X: D(   30) --> V(    6) amplitude =  0.3959
    X: D(   30) --> V(    9) amplitude =  0.4719
    X: D(   30) --> V(   12) amplitude = -0.4600

 Excited state  71: excitation energy (eV) =   13.4875
 Total energy for state 71:                  -435.96443449 au
    Multiplicity: Singlet 
    Trans. Mom.: -0.0001 X  -0.4164 Y  -0.0001 Z
    Strength   :     0.0572944472
    X: D(   27) --> V(    5) amplitude =  0.2322
    X: D(   28) --> V(    6) amplitude =  0.3977
    X: D(   28) --> V(    9) amplitude = -0.2274
    X: D(   30) --> V(    5) amplitude =  0.5256
    X: D(   30) --> V(   10) amplitude =  0.4289
    X: D(   30) --> V(   11) amplitude =  0.4197

 Excited state  72: excitation energy (eV) =   13.5265
 Total energy for state 72:                  -435.96300067 au
    Multiplicity: Singlet 
    Trans. Mom.: -0.0000 X   0.0002 Y  -0.1603 Z
    Strength   :     0.0085108306
    X: D(   17) --> V(    1) amplitude = -0.4318
    X: D(   18) --> V(    1) amplitude =  0.3706
    X: D(   20) --> V(    3) amplitude =  0.5524
    X: D(   26) --> V(    7) amplitude =  0.4550

 Excited state  73: excitation energy (eV) =   13.6253
 Total energy for state 73:                  -435.95937284 au
    Multiplicity: Singlet 
    Trans. Mom.: -0.0000 X   0.0001 Y   0.1567 Z
    Strength   :     0.0082011676
    X: D(   17) --> V(    1) amplitude = -0.3053
    X: D(   21) --> V(    2) amplitude =  0.6331
[...]
   77   93   0.000035  -0.000792  -0.018364   6.427206E-06
   77   94  -0.004503  -1.526531  -0.000048     0.04533807
   77   95  -0.000016  -0.001036  -0.002813   1.778552E-07
   77   96   0.000022   0.000595   0.000055   7.175366E-09
   77   97   0.066188   0.001404  -0.000037    9.37279E-05
   77   98  -0.000024  -0.000167   0.000022   6.984376E-10
   77   99   0.369653  -0.003280   0.000015    0.003325366
   77  100  -0.019622  -0.330725  -0.000003    0.002826251
   78   79  -0.000320   0.000204  -0.000053   2.748394E-10
   78   80   2.157276  -0.000468   0.000031     0.01568342
   78   81  -0.039108  -0.024014   0.000015   7.160922E-06
   78   82   0.000857  -0.000200   0.000013   3.872178E-09
   78   83  -0.330105  -0.000141  -0.000023    0.001013893
   78   84  -0.000036   0.031481   0.000003     1.0482E-05
   78   85   0.000120  -0.000159   0.003559   1.348105E-07
   78   86  -0.000472   0.033348   0.000003   1.219187E-05
   78   87   0.110912   0.000207   0.000006   0.0001518776
   78   88   0.000690  -0.055144   0.000001   4.313934E-05
   78   89  -0.000225  -0.000070  -0.003494   1.800483E-07
   78   90  -0.000107  -0.000011  -0.000003   1.790404E-10
   78   91  -0.758644  -0.000299   0.000014    0.009615965
   78   92   0.000446   0.000127   0.003728   2.442884E-07
   78   93  -0.000264   0.328458  -0.000003    0.001918979
   78   94   0.000230  -0.000015   0.006557   7.844767E-07
   78   95   0.001168  -0.064155   0.000013    7.63856E-05
   78   96   0.147012   0.000527  -0.000012   0.0004069433
   78   97  -0.000087   0.000344   0.000017   2.542884E-09
   78   98  -0.306085   0.000086   0.000012    0.002143412
   78   99  -0.000236  -0.000095   0.000025   1.504331E-09
   78  100  -0.000665  -0.000170   0.044827   4.927137E-05
   79   80  -0.000392  -0.000022  -0.000011   2.314095E-10
   79   81   0.000098   0.000011   0.001082   1.804962E-09
   79   82   0.301389  -0.000120   0.000009    0.000284122
   79   83  -0.000244  -0.000280   0.000009    1.02692E-09
   79   84  -0.000396  -0.000394   0.001260   1.653677E-08
   79   85   0.000802  -0.882324  -0.000019    0.006805508
   79   86  -0.000260  -0.000571   0.000267   4.221607E-09
   79   87  -0.000095   0.000059   0.000005   1.314043E-10
   79   88   0.000270   0.000031   0.001457   2.703958E-08
   79   89   0.000302  -0.049578  -0.000001   3.148522E-05
   79   90   0.925705   0.001145  -0.000003     0.01154847
   79   91  -0.000320   0.000729  -0.000010   9.399819E-09
   79   92  -0.000360   0.915708   0.000017     0.01294552
   79   93   0.000152   0.000503   0.007487   8.966925E-07
   79   94  -0.000488   0.797416   0.000015     0.01039685
   79   95   0.000077   0.000291  -0.012245    2.50307E-06
   79   96   0.000225  -0.000376   0.000114   3.478725E-09
   79   97  -0.275568   0.000003  -0.000030    0.001388129
   79   98   0.000496  -0.000149   0.000001   5.638934E-09
   79   99  -0.840736  -0.000904  -0.000017     0.01500546
   79  100  -0.000252  -1.275135  -0.000019     0.03681725
   80   81   0.074933   0.141441  -0.000027   7.705865E-07
   80   82  -0.000237  -0.000277   0.000148   2.517574E-10
   80   83   0.493017  -0.000353  -0.000037    0.001442444
   80   84  -0.000835   0.068506  -0.000000   3.382751E-05
   80   85  -0.000163   0.000383   0.004221   1.303104E-07
   80   86   0.012035  -0.112080   0.000028   9.645583E-05
   80   87   0.256454   0.001150   0.000006    0.000590375
   80   88   0.003815  -0.056992   0.000001   3.528388E-05
   80   89   0.000110   0.000051  -0.002303   6.013785E-08
   80   90   0.000103   0.000074   0.000731   6.588195E-09
   80   91   0.114153   0.001122   0.000031   0.0001738179
   80   92  -0.000296  -0.000554   0.009114   1.163315E-06
   80   93  -0.001114  -0.186682   0.000043   0.0005024659
   80   94  -0.000039  -0.000291   0.031287   1.453878E-05
   80   95  -0.006274   0.031475   0.000021   1.563838E-05
   80   96  -0.362636  -0.000249  -0.000020    0.002032898
   80   97   0.000057  -0.000117  -0.000725   9.115961E-09
   80   98   0.446460   0.003737   0.000010    0.003888755
   80   99   0.000393  -0.000041  -0.000206   3.916154E-09
   80  100   0.000305  -0.000225   0.015184   4.877515E-06
   81   82  -0.000243   0.000059   0.007922   1.003975E-07
   81   83  -0.009973  -0.024835  -0.000006   4.228908E-06
   81   84  -0.029893  -0.001327  -0.000002   6.425786E-06
   81   85  -0.000804   0.000003  -0.000055   4.683815E-09
   81   86   0.622780   0.001839  -0.000005    0.002932532
   81   87  -0.004513   0.059021  -0.000001   3.134607E-05
   81   88   0.223222   0.000957   0.000021   0.0005373699
   81   89   0.000429  -0.000019   0.000061   2.118287E-09
   81   90  -0.000161   0.000061   0.039911   1.903003E-05
   81   91  -0.001870   0.051179  -0.000020   3.490315E-05
   81   92   0.000117   0.000208  -0.000179    1.23339E-09
   81   93  -0.063689   0.003290   0.000069   5.851414E-05
   81   94   0.000106   0.000121  -0.000577   5.320233E-09
   81   95  -0.166300  -0.000436  -0.000019   0.0004190621
   81   96   0.008261   0.000967   0.000015   1.067272E-06
   81   97   0.000072  -0.000022  -0.040355   2.727842E-05
   81   98  -0.008263   0.206195   0.000020   0.0008294642
   81   99  -0.000191   0.000119  -0.011892   2.786898E-06
   81  100   0.000048   0.000070  -0.000259   1.565965E-09
   82   83   0.000147  -0.000406   0.000035   8.082875E-10
   82   84  -0.000311  -0.000359  -0.000956   6.352212E-09
   82   85  -0.000041  -0.942144   0.000033    0.004983179
   82   86   0.001046  -0.000776  -0.016918   1.716713E-06
   82   87   0.000035  -0.000187  -0.000006   2.663423E-10
   82   88   0.000112  -0.000173  -0.000473   2.442328E-09
   82   89   0.000006  -0.182393  -0.000002   0.0003220582
   82   90  -0.115756   0.001480   0.000005   0.0001386895
   82   91   0.000086   0.001406  -0.000010   2.323243E-08
   82   92  -0.000111   1.704282  -0.000046     0.03575724
   82   93   0.000366   0.000643   0.014523   2.704512E-06
   82   94  -0.000006   1.271062  -0.000050     0.02136249
   82   95  -0.000174   0.000514   0.001523   3.542664E-08
   82   96   0.000277  -0.000697  -0.000016   7.785546E-09
   82   97  -0.108685   0.000135   0.000014   0.0001789813
   82   98   0.000703   0.000241  -0.000002   9.879921E-09
   82   99  -0.517075   0.000740   0.000021    0.004839646
   82  100   0.000477   0.187626   0.000027   0.0006870111
   83   84   0.002817   0.611901   0.000005   0.0004764916
   83   85  -0.000454   0.000222   0.025820   8.721871E-07
   83   86  -0.003863  -0.413462   0.000078   0.0002832132
   83   87   0.700627   0.001913   0.000045    0.001493251
   83   88  -0.000463  -0.639264  -0.000038    0.001994242
   83   89   0.000142  -0.000215   0.007382   2.932417E-07
   83   90  -0.000102   0.000367   0.000001   8.782783E-10
   83   91   0.131826   0.000401   0.000025   0.0001286565
   83   92   0.000469   0.000150   0.020323   3.308079E-06
   83   93  -0.000516  -0.069983  -0.000003   4.154867E-05
   83   94  -0.000440   0.000254   0.001127   1.361952E-08
   83   95  -0.007595  -0.045905   0.000001   2.002284E-05
   83   96  -0.842457   0.000359  -0.000017    0.006759768
   83   97  -0.000291  -0.000329  -0.000020   2.094901E-09
   83   98  -0.331227  -0.001595  -0.000011    0.001489228
   83   99  -0.001002  -0.000065  -0.000008   1.391446E-08
   83  100   0.000061  -0.000143  -0.007012   7.481709E-07
   84   85   0.000765  -0.000266   0.000009    2.31435E-11
   84   86  -1.212570   0.001644  -0.000019   0.0005645612
   84   87  -0.002753   0.331932   0.000003   0.0001949628
   84   88   1.090252  -0.000470  -0.000010    0.004287917
   84   89   0.000581   0.000009  -0.000006   1.386913E-09
   84   90  -0.000140   0.000006   0.010071    4.83839E-07
   84   91  -0.001005  -0.015857  -0.000003   1.547788E-06
   84   92   0.000792   0.000162  -0.000014   4.398478E-09
   84   93   0.300771  -0.000115  -0.000030   0.0006522703
   84   94  -0.000225   0.000101   0.000018   4.682238E-10
   84   95   0.275391  -0.005091   0.000050   0.0006050996
   84   96  -0.004195  -0.447924  -0.000014    0.001655748
   84   97   0.000480  -0.000244   0.079733   6.086387E-05
   84   98  -0.001107  -0.141851   0.000003    0.000247537
   84   99   0.000005  -0.000205  -0.002732   9.402102E-08
   84  100  -0.000216  -0.000090   0.000002   7.636649E-10
   85   86  -0.003608   0.000201   0.000054   4.556057E-09
   85   87  -0.000169   0.000307  -0.001685   5.135726E-09
   85   88  -0.001438   0.000357  -0.000038   7.844119E-09
   85   89   0.319394   0.000260  -0.000036   0.0004148789
   85   90   0.000968   0.513855   0.000023    0.001250182
   85   91   0.000819   0.000033  -0.003870   9.540333E-08
   85   92   1.314596  -0.000332   0.000029      0.0115729
   85   93   0.000374   0.000580   0.000036   3.424553E-09
   85   94   0.480104  -0.000658  -0.000020    0.001753799
   85   95   0.000291  -0.000029   0.000131    8.16723E-10
   85   96  -0.000143   0.000454   0.012983   1.386817E-06
   85   97   0.000239  -0.137906  -0.000035   0.0001813942
   85   98   0.000154  -0.000488  -0.011175   1.534903E-06
   85   99   0.000048  -0.263156   0.000012   0.0008647434
   85  100   0.052483   0.000208   0.000017   3.829196E-05
   86   87  -0.000154  -0.338213   0.000031   0.0001584765
   86   88   0.686915  -0.000853   0.000010    0.001520979
   86   89   0.000775  -0.000038   0.000012   2.236347E-09
   86   90  -0.000394   0.000494  -0.001708   1.453985E-08
   86   91   0.000293  -0.177042   0.000002   0.0001801262
   86   92   0.000965  -0.000368   0.000046      6.778E-09
   86   93   0.024776  -0.000231  -0.000014   4.190727E-06
   86   94  -0.000178  -0.000175   0.000010   4.518461E-10
   86   95  -0.302283  -0.001343  -0.000005   0.0006937218
   86   96   0.000849  -0.090715  -0.000020    6.47522E-05
   86   97  -0.000029  -0.000030   0.011141   1.140671E-06
   86   98  -0.001232   0.735444   0.000008    0.006445785
   86   99  -0.000028   0.000219  -0.006250   4.747704E-07
   86  100   0.000570  -0.000199  -0.000014   4.941954E-09
   87   88   0.001393  -0.057501   0.000002    6.08067E-06
   87   89   0.000804  -0.000027   0.007669   1.387004E-07
   87   90  -0.000160  -0.000003   0.000018   7.729604E-11
   87   91   0.542660  -0.000224  -0.000072    0.001284333
   87   92   0.000296   0.000396   0.002249   2.631343E-08
   87   93   0.001410  -0.047436   0.000003     1.2254E-05
   87   94  -0.000288  -0.000431  -0.007832   3.619251E-07
   87   95   0.007645   0.565909  -0.000001    0.001988002
   87   96   0.666075  -0.005942  -0.000018    0.002876177
   87   97   0.000233  -0.000150   0.000146   7.647694E-10
   87   98   0.243586   0.000406   0.000043   0.0006248943
   87   99  -0.000912  -0.000047   0.000004    8.96531E-09
   87  100   0.000128  -0.000010  -0.000391   2.064661E-09
   88   89   0.002591   0.000047   0.000005   3.322085E-09
   88   90  -0.000276  -0.000079   0.001647   3.248841E-09
   88   91   0.001139   0.071903   0.000016   1.304928E-05
   88   92   0.001497  -0.000086  -0.000024    7.02683E-09
   88   93  -0.197098   0.000016   0.000013   0.0001399674
   88   94  -0.001024  -0.000361  -0.000011   4.758331E-09
   88   95  -0.410170  -0.002357  -0.000000   0.0007349764
   88   96   0.006364  -0.305923   0.000038   0.0004348515
   88   97   0.000282  -0.000177   0.000637   3.080815E-09
   88   98   0.000653  -0.373909   0.000008    0.001215467
   88   99  -0.000730  -0.000430  -0.018076   2.919387E-06
   88  100   0.000880   0.000291   0.000017   8.881121E-09
   89   90   0.001962   0.045260  -0.000019   1.370458E-06
   89   91   0.001720  -0.000045  -0.034444   2.412688E-06
   89   92   0.210823   0.000033   0.000045   0.0001168809
   89   93  -0.000920   0.000064   0.000000   2.642511E-09
   89   94  -0.145069  -0.000256   0.000014   7.453576E-05
   89   95  -0.000493   0.000119   0.000030   1.001779E-09
   89   96   0.000308  -0.000140   0.002909   3.558517E-08
   89   97   0.000004   0.081653  -0.000005   3.647704E-05
   89   98   0.000095  -0.000088   0.001068   9.491828E-09
   89   99  -0.000436  -0.087893  -0.000019   6.504853E-05
   89  100  -0.081044   0.000149   0.000041   6.459481E-05
   90   91  -0.000324  -0.000145  -0.000040   1.732869E-10
   90   92  -0.002729   0.134544   0.000032    3.55304E-05
   90   93  -0.000067  -0.000267   0.070430   1.210586E-05
   90   94  -0.000374  -0.562766  -0.000069   0.0009101994
   90   95   0.000223  -0.000522   0.007809   1.965278E-07
   90   96  -0.000048   0.000064  -0.000093   5.258662E-11
   90   97   0.116944   0.000144   0.000132   6.569031E-05
   90   98   0.000597   0.000172   0.000001   2.909921E-09
   90   99  -1.130682   0.000785   0.000020     0.00991102
   90  100   0.000181   0.307746   0.000030   0.0008681547
   91   92  -0.002559   0.000117  -0.002830   8.760275E-09
   91   93  -0.001545   0.158995  -0.000026   2.729439E-05
   91   94  -0.000333  -0.000098  -0.000446   4.831733E-10
   91   95   0.005945   0.184064   0.000001   6.257701E-05
   91   96   0.601397  -0.001921  -0.000023   0.0007671381
   91   97   0.000294   0.000032   0.000052   3.094841E-10
   91   98   0.421963  -0.000092   0.000009    0.001098662
   91   99   0.000094   0.000588   0.000015    2.27081E-09
   91  100  -0.000253  -0.000069   0.019280   2.902136E-06
   92   93   0.000295  -0.000264  -0.000032    7.55785E-11
   92   94   1.010586   0.000797   0.000035   0.0009314092
   92   95   0.001778   0.000046   0.000055   3.936818E-09
   92   96   0.000714  -0.000228   0.006059   5.664524E-08
   92   97  -0.000863  -0.065450   0.000002   1.217386E-05
   92   98  -0.000412  -0.000811  -0.003204    6.17755E-08
   92   99   0.000056   0.994260   0.000093    0.005724172
   92  100  -1.557812  -0.000853  -0.000032     0.01748432
   93   94  -0.003227  -0.000072  -0.000016   4.516414E-09
   93   95  -0.099095   0.000592  -0.000037   7.517406E-06
   93   96   0.001800   0.044740   0.000025   2.087979E-06
   93   97   0.001180  -0.000039  -0.054288    6.96728E-06
   93   98   0.000793  -0.018164   0.000008   1.682898E-06
   93   99   0.000264  -0.000171  -0.015880   1.340008E-06
   93  100   0.000994   0.000167   0.000017   6.830846E-09
   94   95  -0.003128   0.000028  -0.000025    3.24845E-09
   94   96   0.002352  -0.000236  -0.002322   6.674555E-09
   94   97   0.000502   0.033187   0.000033   2.125405E-06
   94   98   0.000934   0.000073  -0.008067   3.071995E-07
   94   99   0.001283  -0.259384  -0.000110   0.0003282302
   94  100   1.944402  -0.000181  -0.000003     0.02379097
   95   96   0.035461   0.252855   0.000011   1.798789E-05
   95   97  -0.000217   0.000069   0.005965   5.692836E-08
   95   98   0.017285   0.036586  -0.000022   7.081947E-06
   95   99   0.000120  -0.000432   0.007817   2.787644E-07
   95  100   0.001696  -0.000080  -0.000026   1.718219E-08
   96   97   0.001467  -0.000144  -0.000039   2.873951E-09
   96   98   1.779171  -0.000299  -0.000019     0.01281818
   96   99   0.001193  -0.000059  -0.000071   6.117706E-09
   96  100  -0.000876   0.000086  -0.002405   3.727435E-08
   97   98   0.000661  -0.000198   0.000032   1.301811E-09
   97   99   0.014468  -0.000030  -0.000028   6.173404E-07
   97  100   0.000168  -0.343094  -0.000017   0.0005136255
   98   99   0.003731   0.000131   0.000008   3.082325E-09
   98  100  -0.000219  -0.000194  -0.000038   1.423604E-10
   99  100   0.001809   0.543322   0.000077   0.0004175013
 --------------------------------------------------------------------------------

                    END OF TRANSITION MOMENT CALCULATION

 STSman time:  CPU 118.31 s  wall 9.87 s

 
 --------------------------------------------------------------
 
                    Orbital Energies (a.u.)
 --------------------------------------------------------------
 
 Alpha MOs
 -- Occupied --
-19.3115 -19.3115 -14.6918 -10.3752 -10.3373 -10.3373 -10.3351 -10.3319
-10.3319  -1.3462  -1.1688  -1.0083  -0.9241  -0.8848  -0.8126  -0.7386
 -0.6995  -0.6611  -0.6331  -0.6084  -0.6042  -0.5650  -0.5622  -0.5447
 -0.4886  -0.4792  -0.4604  -0.3977  -0.3906  -0.3823  -0.3650  -0.3607
 -- Virtual --
 -0.0359   0.0408   0.0677   0.1545   0.2105   0.2126   0.2205   0.2516
  0.2612   0.2622   0.3206   0.3364   0.3487   0.3586   0.4059   0.4445
  0.5492   0.5769   0.5799   0.6299   0.6492   0.6543   0.6670   0.6762
  0.6884   0.7124   0.7137   0.7239   0.7270   0.7295   0.8088   0.8204
  0.8535   0.9171   0.9197   0.9406   0.9613   0.9789   0.9893   1.0125
  1.0391   1.0425   1.0838   1.0842   1.1021   1.1421   1.1912   1.1925
  1.2251   1.2429   1.2811   1.3261   1.4574   1.5045   1.5712   1.6494
  1.7517   1.9412   1.9881
 --------------------------------------------------------------
 
          Ground-State Mulliken Net Atomic Charges

     Atom                 Charge (a.u.)
  ----------------------------------------
      1 C                    -0.186816
      2 C                    -0.135897
      3 C                     0.284291
      4 C                    -0.135866
      5 C                    -0.134713
      6 H                     0.188688
      7 H                     0.228415
      8 H                     0.228413
      9 H                     0.186429
     10 N                     0.069024
     11 O                    -0.296918
     12 O                    -0.296918
     13 C                    -0.186820
     14 H                     0.188689
  ----------------------------------------
  Sum of atomic charges =     0.000000

 -----------------------------------------------------------------
                    Cartesian Multipole Moments
 -----------------------------------------------------------------
    Charge (ESU x 10^10)
                -0.0000
    Dipole Moment (Debye)
         X      -5.1408      Y       0.0001      Z      -0.0004
       Tot       5.1408
    Quadrupole Moments (Debye-Ang)
        XX     -55.1587     XY       0.0002     YY     -47.3972
        XZ       0.0009     YZ       0.0009     ZZ     -52.5020
    Octopole Moments (Debye-Ang^2)
       XXX     -35.0112    XXY      -0.0009    XYY     -10.1868
       YYY       0.0009    XXZ      -0.0035    XYZ       0.0013
       YYZ      -0.0013    XZZ      12.4270    YZZ      -0.0001
       ZZZ      -0.0006
    Hexadecapole Moments (Debye-Ang^3)
      XXXX    -987.2650   XXXY       0.0037   XXYY    -230.7757
      XYYY      -0.0000   YYYY    -339.4219   XXXZ       0.0131
      XXYZ       0.0027   XYYZ       0.0021   YYYZ       0.0016
      XXZZ    -178.7437   XYZZ       0.0003   YYZZ     -75.7997
      XZZZ       0.0008   YZZZ      -0.0014   ZZZZ     -49.5090
 -----------------------------------------------------------------
Grid information in Angstroms:
 x:        100  min =  -6.599850 max =   5.295760
 y:        100  min =  -5.150870 max =   5.150930
 z:        100  min =  -3.000230 max =   3.000110
 Plotting total densities:  0 1 2 3 4 5 6 7 8 9 10 11 12 13 14 15 16 17 18 19 20 21 22 23 24 25 26 27 28 29 30 31 32 33 34 35 36 37 38 39 40 41 42 43 44 45 46 47 48 49 50 51 52 53 54 55 56 57 58 59 60 61 62 63 64 65 66 67 68 69 70 71 72 73 74 75 76 77 78 79 80 81 82 83 84 85 86 87 88 89 90 91 92 93 94 95 96 97 98 99 100
 Created directory /local_scratch/16100703/QCLOCALSCR/save/plots
 Plotting transition densities:  1 2 3 4 5 6 7 8 9 10 11 12 13 14 15 16 17 18 19 20 21 22 23 24 25 26 27 28 29 30 31 32 33 34 35 36 37 38 39 40 41 42 43 44 45 46 47 48 49 50 51 52 53 54 55 56 57 58 59 60 61 62 63 64 65 66 67 68 69 70 71 72 73 74 75 76 77 78 79 80 81 82 83 84 85 86 87 88 89 90 91 92 93 94 95 96 97 98 99 100
 Total job time:  276.92s(wall), 2688.57s(cpu) 
 Mon Apr 17 09:34:27 2023

        *************************************************************
        *                                                           *
        *  Thank you very much for using Q-Chem.  Have a nice day.  *
        *                                                           *
        *************************************************************


